# Forces      
# CofR        : (0.000000e+00 0.000000e+00 0.000000e+00)
# Time        forces(pressure viscous porous)	moments(pressure viscous porous)
350           	((3.236614e+02 -7.960173e+00 8.615323e-01) (2.026679e+01 1.009147e-01 -7.095486e-01) (0.000000e+00 0.000000e+00 0.000000e+00)) ((1.068886e+01 3.713293e+02 -3.290981e+00) (-3.353918e-01 2.143101e+01 -1.201624e-01) (0.000000e+00 0.000000e+00 0.000000e+00))
351           	((3.239879e+02 -8.027830e+00 7.737532e-01) (2.026870e+01 9.605056e-02 -7.077942e-01) (0.000000e+00 0.000000e+00 0.000000e+00)) ((1.077118e+01 3.716680e+02 -3.220101e+00) (-3.317481e-01 2.143182e+01 -1.180291e-01) (0.000000e+00 0.000000e+00 0.000000e+00))
352           	((3.242517e+02 -7.981928e+00 6.364924e-01) (2.027089e+01 9.193038e-02 -7.058444e-01) (0.000000e+00 0.000000e+00 0.000000e+00)) ((1.071564e+01 3.719472e+02 -3.122768e+00) (-3.286390e-01 2.143300e+01 -1.161219e-01) (0.000000e+00 0.000000e+00 0.000000e+00))
353           	((3.244460e+02 -7.875504e+00 4.643709e-01) (2.027236e+01 8.869423e-02 -7.033199e-01) (0.000000e+00 0.000000e+00 0.000000e+00)) ((1.057863e+01 3.721619e+02 -3.005229e+00) (-3.261334e-01 2.143367e+01 -1.145866e-01) (0.000000e+00 0.000000e+00 0.000000e+00))
354           	((3.245364e+02 -7.661185e+00 2.362291e-01) (2.027399e+01 8.611399e-02 -7.006635e-01) (0.000000e+00 0.000000e+00 0.000000e+00)) ((1.030425e+01 3.722725e+02 -2.883664e+00) (-3.240097e-01 2.143456e+01 -1.132284e-01) (0.000000e+00 0.000000e+00 0.000000e+00))
355           	((3.245115e+02 -7.333945e+00 -7.103973e-02) (2.027550e+01 8.393526e-02 -6.978436e-01) (0.000000e+00 0.000000e+00 0.000000e+00)) ((9.882573e+00 3.722602e+02 -2.749430e+00) (-3.220113e-01 2.143520e+01 -1.120733e-01) (0.000000e+00 0.000000e+00 0.000000e+00))
356           	((3.243583e+02 -6.865906e+00 -4.537955e-01) (2.027771e+01 8.218361e-02 -6.949173e-01) (0.000000e+00 0.000000e+00 0.000000e+00)) ((9.298925e+00 3.721031e+02 -2.614887e+00) (-3.201610e-01 2.143658e+01 -1.111561e-01) (0.000000e+00 0.000000e+00 0.000000e+00))
357           	((3.240821e+02 -6.312499e+00 -8.896029e-01) (2.027945e+01 8.063586e-02 -6.918020e-01) (0.000000e+00 0.000000e+00 0.000000e+00)) ((8.612316e+00 3.718192e+02 -2.480063e+00) (-3.182512e-01 2.143723e+01 -1.105401e-01) (0.000000e+00 0.000000e+00 0.000000e+00))
358           	((3.236788e+02 -5.694941e+00 -1.380893e+00) (2.028207e+01 7.887889e-02 -6.888035e-01) (0.000000e+00 0.000000e+00 0.000000e+00)) ((7.852354e+00 3.713843e+02 -2.330298e+00) (-3.159559e-01 2.143849e+01 -1.100129e-01) (0.000000e+00 0.000000e+00 0.000000e+00))
359           	((3.231730e+02 -5.091560e+00 -1.895947e+00) (2.028424e+01 7.686591e-02 -6.858668e-01) (0.000000e+00 0.000000e+00 0.000000e+00)) ((7.103073e+00 3.708243e+02 -2.149055e+00) (-3.132271e-01 2.143900e+01 -1.095689e-01) (0.000000e+00 0.000000e+00 0.000000e+00))
360           	((3.225751e+02 -4.574591e+00 -2.443201e+00) (2.028771e+01 7.443507e-02 -6.833154e-01) (0.000000e+00 0.000000e+00 0.000000e+00)) ((6.443906e+00 3.701299e+02 -1.923199e+00) (-3.099066e-01 2.144037e+01 -1.090860e-01) (0.000000e+00 0.000000e+00 0.000000e+00))
361           	((3.219443e+02 -4.206571e+00 -2.941028e+00) (2.029133e+01 7.162425e-02 -6.811062e-01) (0.000000e+00 0.000000e+00 0.000000e+00)) ((5.938081e+00 3.693598e+02 -1.639913e+00) (-3.060834e-01 2.144156e+01 -1.086590e-01) (0.000000e+00 0.000000e+00 0.000000e+00))
362           	((3.213551e+02 -3.972231e+00 -3.372888e+00) (2.029580e+01 6.831424e-02 -6.797849e-01) (0.000000e+00 0.000000e+00 0.000000e+00)) ((5.573449e+00 3.685679e+02 -1.297657e+00) (-3.016374e-01 2.144309e+01 -1.082463e-01) (0.000000e+00 0.000000e+00 0.000000e+00))
363           	((3.208472e+02 -3.936630e+00 -3.707028e+00) (2.030009e+01 6.463422e-02 -6.790832e-01) (0.000000e+00 0.000000e+00 0.000000e+00)) ((5.422572e+00 3.677962e+02 -9.009305e-01) (-2.967231e-01 2.144411e+01 -1.078533e-01) (0.000000e+00 0.000000e+00 0.000000e+00))
364           	((3.204586e+02 -4.063512e+00 -3.927978e+00) (2.030532e+01 6.037354e-02 -6.791905e-01) (0.000000e+00 0.000000e+00 0.000000e+00)) ((5.453007e+00 3.670758e+02 -4.702776e-01) (-2.911677e-01 2.144579e+01 -1.073890e-01) (0.000000e+00 0.000000e+00 0.000000e+00))
365           	((3.202349e+02 -4.386125e+00 -3.994650e+00) (2.031014e+01 5.580426e-02 -6.801217e-01) (0.000000e+00 0.000000e+00 0.000000e+00)) ((5.698579e+00 3.664734e+02 -1.533229e-02) (-2.852976e-01 2.144676e+01 -1.069467e-01) (0.000000e+00 0.000000e+00 0.000000e+00))
366           	((3.201746e+02 -4.861308e+00 -3.896903e+00) (2.031561e+01 5.048619e-02 -6.821850e-01) (0.000000e+00 0.000000e+00 0.000000e+00)) ((6.108391e+00 3.659835e+02 4.437598e-01) (-2.786199e-01 2.144812e+01 -1.064193e-01) (0.000000e+00 0.000000e+00 0.000000e+00))
367           	((3.202726e+02 -5.557768e+00 -3.610832e+00) (2.032073e+01 4.486341e-02 -6.849942e-01) (0.000000e+00 0.000000e+00 0.000000e+00)) ((6.757657e+00 3.656425e+02 9.134217e-01) (-2.717514e-01 2.144905e+01 -1.060394e-01) (0.000000e+00 0.000000e+00 0.000000e+00))
368           	((3.204975e+02 -6.466586e+00 -3.152358e+00) (2.032609e+01 3.882525e-02 -6.884169e-01) (0.000000e+00 0.000000e+00 0.000000e+00)) ((7.637376e+00 3.654151e+02 1.373978e+00) (-2.644913e-01 2.145045e+01 -1.058013e-01) (0.000000e+00 0.000000e+00 0.000000e+00))
369           	((3.208098e+02 -7.551578e+00 -2.540976e+00) (2.033079e+01 3.277880e-02 -6.917673e-01) (0.000000e+00 0.000000e+00 0.000000e+00)) ((8.710356e+00 3.652778e+02 1.808843e+00) (-2.572806e-01 2.145137e+01 -1.059230e-01) (0.000000e+00 0.000000e+00 0.000000e+00))
370           	((3.212069e+02 -8.821728e+00 -1.785990e+00) (2.033606e+01 2.627014e-02 -6.952702e-01) (0.000000e+00 0.000000e+00 0.000000e+00)) ((9.981805e+00 3.652437e+02 2.191279e+00) (-2.495409e-01 2.145321e+01 -1.063579e-01) (0.000000e+00 0.000000e+00 0.000000e+00))
371           	((3.216303e+02 -1.027346e+01 -9.396917e-01) (2.034103e+01 1.980701e-02 -6.980492e-01) (0.000000e+00 0.000000e+00 0.000000e+00)) ((1.145917e+01 3.652902e+02 2.498936e+00) (-2.420221e-01 2.145499e+01 -1.070616e-01) (0.000000e+00 0.000000e+00 0.000000e+00))
372           	((3.220266e+02 -1.182694e+01 -6.282908e-02) (2.034660e+01 1.339109e-02 -7.007738e-01) (0.000000e+00 0.000000e+00 0.000000e+00)) ((1.306487e+01 3.653499e+02 2.690020e+00) (-2.345025e-01 2.145751e+01 -1.080476e-01) (0.000000e+00 0.000000e+00 0.000000e+00))
373           	((3.223775e+02 -1.342341e+01 8.178102e-01) (2.035188e+01 7.107026e-03 -7.026908e-01) (0.000000e+00 0.000000e+00 0.000000e+00)) ((1.474392e+01 3.654307e+02 2.769378e+00) (-2.272288e-01 2.145996e+01 -1.092361e-01) (0.000000e+00 0.000000e+00 0.000000e+00))
374           	((3.226193e+02 -1.501824e+01 1.607452e+00) (2.035762e+01 1.005157e-03 -7.048467e-01) (0.000000e+00 0.000000e+00 0.000000e+00)) ((1.646084e+01 3.654643e+02 2.721935e+00) (-2.199590e-01 2.146309e+01 -1.104814e-01) (0.000000e+00 0.000000e+00 0.000000e+00))
375           	((3.227185e+02 -1.657849e+01 2.291290e+00) (2.036268e+01 -4.681711e-03 -7.064387e-01) (0.000000e+00 0.000000e+00 0.000000e+00)) ((1.819459e+01 3.654387e+02 2.558240e+00) (-2.130786e-01 2.146580e+01 -1.118613e-01) (0.000000e+00 0.000000e+00 0.000000e+00))
376           	((3.226418e+02 -1.802686e+01 2.809878e+00) (2.036814e+01 -9.638342e-03 -7.082270e-01) (0.000000e+00 0.000000e+00 0.000000e+00)) ((1.986000e+01 3.653075e+02 2.275687e+00) (-2.067065e-01 2.146927e+01 -1.133410e-01) (0.000000e+00 0.000000e+00 0.000000e+00))
377           	((3.224006e+02 -1.927498e+01 3.155157e+00) (2.037336e+01 -1.411452e-02 -7.101906e-01) (0.000000e+00 0.000000e+00 0.000000e+00)) ((2.136839e+01 3.650907e+02 1.892711e+00) (-2.007955e-01 2.147297e+01 -1.148240e-01) (0.000000e+00 0.000000e+00 0.000000e+00))
378           	((3.219854e+02 -2.025485e+01 3.280376e+00) (2.037873e+01 -1.757250e-02 -7.127032e-01) (0.000000e+00 0.000000e+00 0.000000e+00)) ((2.264628e+01 3.647508e+02 1.423902e+00) (-1.957133e-01 2.147719e+01 -1.164910e-01) (0.000000e+00 0.000000e+00 0.000000e+00))
379           	((3.214219e+02 -2.088186e+01 3.176862e+00) (2.038383e+01 -2.036542e-02 -7.149492e-01) (0.000000e+00 0.000000e+00 0.000000e+00)) ((2.359844e+01 3.643242e+02 9.110052e-01) (-1.913452e-01 2.148149e+01 -1.183102e-01) (0.000000e+00 0.000000e+00 0.000000e+00))
380           	((3.207037e+02 -2.105994e+01 2.855097e+00) (2.038882e+01 -2.245190e-02 -7.170703e-01) (0.000000e+00 0.000000e+00 0.000000e+00)) ((2.410963e+01 3.637779e+02 3.765456e-01) (-1.875708e-01 2.148614e+01 -1.202566e-01) (0.000000e+00 0.000000e+00 0.000000e+00))
381           	((3.198848e+02 -2.075030e+01 2.336527e+00) (2.039289e+01 -2.393086e-02 -7.190049e-01) (0.000000e+00 0.000000e+00 0.000000e+00)) ((2.413323e+01 3.631625e+02 -1.462019e-01) (-1.845138e-01 2.149016e+01 -1.223450e-01) (0.000000e+00 0.000000e+00 0.000000e+00))
382           	((3.190048e+02 -1.995636e+01 1.679945e+00) (2.039700e+01 -2.531646e-02 -7.205404e-01) (0.000000e+00 0.000000e+00 0.000000e+00)) ((2.364370e+01 3.625137e+02 -6.375541e-01) (-1.815062e-01 2.149479e+01 -1.244593e-01) (0.000000e+00 0.000000e+00 0.000000e+00))
383           	((3.181124e+02 -1.876318e+01 9.110904e-01) (2.039960e+01 -2.696237e-02 -7.209052e-01) (0.000000e+00 0.000000e+00 0.000000e+00)) ((2.273275e+01 3.618735e+02 -1.069886e+00) (-1.783842e-01 2.149868e+01 -1.264933e-01) (0.000000e+00 0.000000e+00 0.000000e+00))
384           	((3.172391e+02 -1.723450e+01 8.379051e-02) (2.040199e+01 -2.875894e-02 -7.205763e-01) (0.000000e+00 0.000000e+00 0.000000e+00)) ((2.145522e+01 3.612763e+02 -1.444004e+00) (-1.750124e-01 2.150295e+01 -1.285408e-01) (0.000000e+00 0.000000e+00 0.000000e+00))
385           	((3.164521e+02 -1.546389e+01 -7.610326e-01) (2.040282e+01 -3.095084e-02 -7.191275e-01) (0.000000e+00 0.000000e+00 0.000000e+00)) ((1.989917e+01 3.608073e+02 -1.741872e+00) (-1.712931e-01 2.150646e+01 -1.303801e-01) (0.000000e+00 0.000000e+00 0.000000e+00))
386           	((3.157866e+02 -1.359277e+01 -1.589759e+00) (2.040363e+01 -3.337036e-02 -7.170495e-01) (0.000000e+00 0.000000e+00 0.000000e+00)) ((1.819415e+01 3.604802e+02 -1.940136e+00) (-1.673091e-01 2.151067e+01 -1.319943e-01) (0.000000e+00 0.000000e+00 0.000000e+00))
387           	((3.152818e+02 -1.171909e+01 -2.336140e+00) (2.040325e+01 -3.567877e-02 -7.139709e-01) (0.000000e+00 0.000000e+00 0.000000e+00)) ((1.643117e+01 3.603404e+02 -2.014468e+00) (-1.634972e-01 2.151424e+01 -1.333853e-01) (0.000000e+00 0.000000e+00 0.000000e+00))
388           	((3.149671e+02 -9.924283e+00 -2.991000e+00) (2.040338e+01 -3.836291e-02 -7.105513e-01) (0.000000e+00 0.000000e+00 0.000000e+00)) ((1.470144e+01 3.604171e+02 -1.976088e+00) (-1.593691e-01 2.151877e+01 -1.343499e-01) (0.000000e+00 0.000000e+00 0.000000e+00))
389           	((3.148561e+02 -8.278549e+00 -3.535941e+00) (2.040243e+01 -4.067743e-02 -7.063490e-01) (0.000000e+00 0.000000e+00 0.000000e+00)) ((1.308336e+01 3.607219e+02 -1.828191e+00) (-1.557236e-01 2.152257e+01 -1.349374e-01) (0.000000e+00 0.000000e+00 0.000000e+00))
390           	((3.149068e+02 -6.820507e+00 -3.994468e+00) (2.040147e+01 -4.285651e-02 -7.022145e-01) (0.000000e+00 0.000000e+00 0.000000e+00)) ((1.161070e+01 3.611941e+02 -1.567550e+00) (-1.523670e-01 2.152671e+01 -1.350983e-01) (0.000000e+00 0.000000e+00 0.000000e+00))
391           	((3.150975e+02 -5.606033e+00 -4.332390e+00) (2.039942e+01 -4.441082e-02 -6.975200e-01) (0.000000e+00 0.000000e+00 0.000000e+00)) ((1.034948e+01 3.618239e+02 -1.199366e+00) (-1.498379e-01 2.153016e+01 -1.350174e-01) (0.000000e+00 0.000000e+00 0.000000e+00))
392           	((3.153829e+02 -4.616915e+00 -4.568376e+00) (2.039717e+01 -4.553284e-02 -6.931421e-01) (0.000000e+00 0.000000e+00 0.000000e+00)) ((9.283509e+00 3.625530e+02 -7.288028e-01) (-1.478932e-01 2.153384e+01 -1.347881e-01) (0.000000e+00 0.000000e+00 0.000000e+00))
393           	((3.157689e+02 -3.920989e+00 -4.745449e+00) (2.039386e+01 -4.577280e-02 -6.887683e-01) (0.000000e+00 0.000000e+00 0.000000e+00)) ((8.494399e+00 3.633732e+02 -1.620444e-01) (-1.468868e-01 2.153684e+01 -1.346319e-01) (0.000000e+00 0.000000e+00 0.000000e+00))
394           	((3.161845e+02 -3.448720e+00 -4.873851e+00) (2.039049e+01 -4.580240e-02 -6.851522e-01) (0.000000e+00 0.000000e+00 0.000000e+00)) ((7.921860e+00 3.642012e+02 4.492556e-01) (-1.461793e-01 2.154014e+01 -1.345597e-01) (0.000000e+00 0.000000e+00 0.000000e+00))
395           	((3.166366e+02 -3.310658e+00 -5.024989e+00) (2.038663e+01 -4.504787e-02 -6.818634e-01) (0.000000e+00 0.000000e+00 0.000000e+00)) ((7.682125e+00 3.650250e+02 1.116534e+00) (-1.464017e-01 2.154327e+01 -1.346989e-01) (0.000000e+00 0.000000e+00 0.000000e+00))
396           	((3.170839e+02 -3.480239e+00 -5.234757e+00) (2.038317e+01 -4.431515e-02 -6.798233e-01) (0.000000e+00 0.000000e+00 0.000000e+00)) ((7.748386e+00 3.657826e+02 1.821093e+00) (-1.467425e-01 2.154695e+01 -1.349821e-01) (0.000000e+00 0.000000e+00 0.000000e+00))
397           	((3.175323e+02 -3.930997e+00 -5.526278e+00) (2.037951e+01 -4.338817e-02 -6.786513e-01) (0.000000e+00 0.000000e+00 0.000000e+00)) ((8.093490e+00 3.664920e+02 2.551091e+00) (-1.474540e-01 2.155028e+01 -1.353235e-01) (0.000000e+00 0.000000e+00 0.000000e+00))
398           	((3.179636e+02 -4.578176e+00 -5.877532e+00) (2.037695e+01 -4.284684e-02 -6.789616e-01) (0.000000e+00 0.000000e+00 0.000000e+00)) ((8.629286e+00 3.671290e+02 3.291351e+00) (-1.480063e-01 2.155449e+01 -1.357443e-01) (0.000000e+00 0.000000e+00 0.000000e+00))
399           	((3.183833e+02 -5.444246e+00 -6.264384e+00) (2.037495e+01 -4.236505e-02 -6.799260e-01) (0.000000e+00 0.000000e+00 0.000000e+00)) ((9.384299e+00 3.677146e+02 4.043288e+00) (-1.486919e-01 2.155888e+01 -1.362137e-01) (0.000000e+00 0.000000e+00 0.000000e+00))
400           	((3.187545e+02 -6.378754e+00 -6.635714e+00) (2.037398e+01 -4.270278e-02 -6.817540e-01) (0.000000e+00 0.000000e+00 0.000000e+00)) ((1.020407e+01 3.682064e+02 4.774376e+00) (-1.487540e-01 2.156412e+01 -1.366810e-01) (0.000000e+00 0.000000e+00 0.000000e+00))
401           	((3.190641e+02 -7.365073e+00 -7.013395e+00) (2.037308e+01 -4.336768e-02 -6.836686e-01) (0.000000e+00 0.000000e+00 0.000000e+00)) ((1.106744e+01 3.685910e+02 5.477554e+00) (-1.486170e-01 2.156896e+01 -1.372649e-01) (0.000000e+00 0.000000e+00 0.000000e+00))
402           	((3.193132e+02 -8.329008e+00 -7.390231e+00) (2.037287e+01 -4.456097e-02 -6.862261e-01) (0.000000e+00 0.000000e+00 0.000000e+00)) ((1.189676e+01 3.688607e+02 6.145930e+00) (-1.480504e-01 2.157399e+01 -1.380006e-01) (0.000000e+00 0.000000e+00 0.000000e+00))
403           	((3.195082e+02 -9.231659e+00 -7.744890e+00) (2.037224e+01 -4.652646e-02 -6.887425e-01) (0.000000e+00 0.000000e+00 0.000000e+00)) ((1.265464e+01 3.690205e+02 6.762280e+00) (-1.466921e-01 2.157791e+01 -1.387913e-01) (0.000000e+00 0.000000e+00 0.000000e+00))
404           	((3.196425e+02 -9.990952e+00 -8.067699e+00) (2.037221e+01 -4.922245e-02 -6.913678e-01) (0.000000e+00 0.000000e+00 0.000000e+00)) ((1.326552e+01 3.690535e+02 7.311268e+00) (-1.446445e-01 2.158168e+01 -1.397718e-01) (0.000000e+00 0.000000e+00 0.000000e+00))
405           	((3.197389e+02 -1.061479e+01 -8.364107e+00) (2.037204e+01 -5.252099e-02 -6.934903e-01) (0.000000e+00 0.000000e+00 0.000000e+00)) ((1.374332e+01 3.689899e+02 7.773083e+00) (-1.419126e-01 2.158447e+01 -1.409504e-01) (0.000000e+00 0.000000e+00 0.000000e+00))
406           	((3.198118e+02 -1.100071e+01 -8.635438e+00) (2.037263e+01 -5.619222e-02 -6.951381e-01) (0.000000e+00 0.000000e+00 0.000000e+00)) ((1.397961e+01 3.688409e+02 8.123130e+00) (-1.388195e-01 2.158743e+01 -1.423818e-01) (0.000000e+00 0.000000e+00 0.000000e+00))
407           	((3.199062e+02 -1.114795e+01 -8.865155e+00) (2.037238e+01 -6.023374e-02 -6.956033e-01) (0.000000e+00 0.000000e+00 0.000000e+00)) ((1.398543e+01 3.686751e+02 8.326763e+00) (-1.352686e-01 2.158874e+01 -1.438895e-01) (0.000000e+00 0.000000e+00 0.000000e+00))
408           	((3.200125e+02 -1.102075e+01 -9.030749e+00) (2.037263e+01 -6.481682e-02 -6.956357e-01) (0.000000e+00 0.000000e+00 0.000000e+00)) ((1.372181e+01 3.684961e+02 8.370566e+00) (-1.310697e-01 2.158986e+01 -1.456797e-01) (0.000000e+00 0.000000e+00 0.000000e+00))
409           	((3.201433e+02 -1.067143e+01 -9.128951e+00) (2.037176e+01 -6.929562e-02 -6.941297e-01) (0.000000e+00 0.000000e+00 0.000000e+00)) ((1.324016e+01 3.683425e+02 8.262579e+00) (-1.267537e-01 2.158913e+01 -1.476805e-01) (0.000000e+00 0.000000e+00 0.000000e+00))
410           	((3.202689e+02 -1.009794e+01 -9.131726e+00) (2.037120e+01 -7.387875e-02 -6.919113e-01) (0.000000e+00 0.000000e+00 0.000000e+00)) ((1.253402e+01 3.681854e+02 7.999901e+00) (-1.221114e-01 2.158799e+01 -1.499258e-01) (0.000000e+00 0.000000e+00 0.000000e+00))
411           	((3.203985e+02 -9.380004e+00 -9.063300e+00) (2.036984e+01 -7.790219e-02 -6.888168e-01) (0.000000e+00 0.000000e+00 0.000000e+00)) ((1.169103e+01 3.680431e+02 7.591736e+00) (-1.177804e-01 2.158518e+01 -1.526168e-01) (0.000000e+00 0.000000e+00 0.000000e+00))
412           	((3.205299e+02 -8.533034e+00 -8.938554e+00) (2.036926e+01 -8.150481e-02 -6.855738e-01) (0.000000e+00 0.000000e+00 0.000000e+00)) ((1.073128e+01 3.679136e+02 7.058880e+00) (-1.138393e-01 2.158225e+01 -1.556032e-01) (0.000000e+00 0.000000e+00 0.000000e+00))
413           	((3.206716e+02 -7.691345e+00 -8.741828e+00) (2.036841e+01 -8.436468e-02 -6.816291e-01) (0.000000e+00 0.000000e+00 0.000000e+00)) ((9.783286e+00 3.678275e+02 6.460747e+00) (-1.105819e-01 2.157797e+01 -1.588050e-01) (0.000000e+00 0.000000e+00 0.000000e+00))
414           	((3.207839e+02 -6.883849e+00 -8.505406e+00) (2.036868e+01 -8.641307e-02 -6.772549e-01) (0.000000e+00 0.000000e+00 0.000000e+00)) ((8.868605e+00 3.677159e+02 5.842901e+00) (-1.081434e-01 2.157392e+01 -1.625007e-01) (0.000000e+00 0.000000e+00 0.000000e+00))
415           	((3.208779e+02 -6.212544e+00 -8.272330e+00) (2.036921e+01 -8.755598e-02 -6.720258e-01) (0.000000e+00 0.000000e+00 0.000000e+00)) ((8.090108e+00 3.675939e+02 5.242741e+00) (-1.066279e-01 2.156901e+01 -1.664984e-01) (0.000000e+00 0.000000e+00 0.000000e+00))
416           	((3.209377e+02 -5.755613e+00 -8.034157e+00) (2.037083e+01 -8.794931e-02 -6.668379e-01) (0.000000e+00 0.000000e+00 0.000000e+00)) ((7.529768e+00 3.674325e+02 4.691471e+00) (-1.058749e-01 2.156396e+01 -1.709646e-01) (0.000000e+00 0.000000e+00 0.000000e+00))
417           	((3.209665e+02 -5.590039e+00 -7.784434e+00) (2.037323e+01 -8.707557e-02 -6.618307e-01) (0.000000e+00 0.000000e+00 0.000000e+00)) ((7.261799e+00 3.672358e+02 4.210564e+00) (-1.063448e-01 2.155818e+01 -1.761017e-01) (0.000000e+00 0.000000e+00 0.000000e+00))
418           	((3.209557e+02 -5.630102e+00 -7.518714e+00) (2.037703e+01 -8.569437e-02 -6.573347e-01) (0.000000e+00 0.000000e+00 0.000000e+00)) ((7.203769e+00 3.670043e+02 3.780992e+00) (-1.073688e-01 2.155253e+01 -1.816415e-01) (0.000000e+00 0.000000e+00 0.000000e+00))
419           	((3.209257e+02 -5.909613e+00 -7.252313e+00) (2.038132e+01 -8.408697e-02 -6.528123e-01) (0.000000e+00 0.000000e+00 0.000000e+00)) ((7.388748e+00 3.667761e+02 3.390668e+00) (-1.086246e-01 2.154624e+01 -1.874048e-01) (0.000000e+00 0.000000e+00 0.000000e+00))
420           	((3.208727e+02 -6.331169e+00 -6.953329e+00) (2.038678e+01 -8.255766e-02 -6.490597e-01) (0.000000e+00 0.000000e+00 0.000000e+00)) ((7.719470e+00 3.665576e+02 3.045183e+00) (-1.099422e-01 2.154046e+01 -1.931791e-01) (0.000000e+00 0.000000e+00 0.000000e+00))
421           	((3.208330e+02 -6.903200e+00 -6.621702e+00) (2.039188e+01 -8.105808e-02 -6.460435e-01) (0.000000e+00 0.000000e+00 0.000000e+00)) ((8.209979e+00 3.664090e+02 2.736707e+00) (-1.113649e-01 2.153381e+01 -1.987839e-01) (0.000000e+00 0.000000e+00 0.000000e+00))
422           	((3.207757e+02 -7.491690e+00 -6.264109e+00) (2.039684e+01 -7.969545e-02 -6.442424e-01) (0.000000e+00 0.000000e+00 0.000000e+00)) ((8.724913e+00 3.662963e+02 2.457968e+00) (-1.127633e-01 2.152690e+01 -2.041749e-01) (0.000000e+00 0.000000e+00 0.000000e+00))
423           	((3.207111e+02 -8.127306e+00 -5.906842e+00) (2.040114e+01 -7.795941e-02 -6.434855e-01) (0.000000e+00 0.000000e+00 0.000000e+00)) ((9.291419e+00 3.662415e+02 2.187879e+00) (-1.145716e-01 2.151954e+01 -2.094899e-01) (0.000000e+00 0.000000e+00 0.000000e+00))
424           	((3.206159e+02 -8.638632e+00 -5.562239e+00) (2.040599e+01 -7.626704e-02 -6.442766e-01) (0.000000e+00 0.000000e+00 0.000000e+00)) ((9.733370e+00 3.662205e+02 1.881791e+00) (-1.164026e-01 2.151293e+01 -2.145995e-01) (0.000000e+00 0.000000e+00 0.000000e+00))
425           	((3.204833e+02 -9.101403e+00 -5.237923e+00) (2.041071e+01 -7.413011e-02 -6.463297e-01) (0.000000e+00 0.000000e+00 0.000000e+00)) ((1.013452e+01 3.662247e+02 1.554310e+00) (-1.186177e-01 2.150666e+01 -2.194708e-01) (0.000000e+00 0.000000e+00 0.000000e+00))
426           	((3.203326e+02 -9.437570e+00 -4.959409e+00) (2.041616e+01 -7.190447e-02 -6.495714e-01) (0.000000e+00 0.000000e+00 0.000000e+00)) ((1.041588e+01 3.662653e+02 1.196971e+00) (-1.209159e-01 2.150184e+01 -2.244033e-01) (0.000000e+00 0.000000e+00 0.000000e+00))
427           	((3.201923e+02 -9.718993e+00 -4.737847e+00) (2.042210e+01 -6.922065e-02 -6.534352e-01) (0.000000e+00 0.000000e+00 0.000000e+00)) ((1.065072e+01 3.663594e+02 8.115615e-01) (-1.236467e-01 2.149841e+01 -2.291929e-01) (0.000000e+00 0.000000e+00 0.000000e+00))
428           	((3.200899e+02 -9.918789e+00 -4.586225e+00) (2.042853e+01 -6.652108e-02 -6.577830e-01) (0.000000e+00 0.000000e+00 0.000000e+00)) ((1.081457e+01 3.665071e+02 4.156919e-01) (-1.264423e-01 2.149641e+01 -2.339048e-01) (0.000000e+00 0.000000e+00 0.000000e+00))
429           	((3.200475e+02 -1.015896e+01 -4.499751e+00) (2.043542e+01 -6.332314e-02 -6.625372e-01) (0.000000e+00 0.000000e+00 0.000000e+00)) ((1.103119e+01 3.667120e+02 2.599311e-02) (-1.296366e-01 2.149577e+01 -2.386252e-01) (0.000000e+00 0.000000e+00 0.000000e+00))
430           	((3.200719e+02 -1.035058e+01 -4.508866e+00) (2.044222e+01 -5.998005e-02 -6.674708e-01) (0.000000e+00 0.000000e+00 0.000000e+00)) ((1.121849e+01 3.669657e+02 -3.653582e-01) (-1.329333e-01 2.149602e+01 -2.433660e-01) (0.000000e+00 0.000000e+00 0.000000e+00))
431           	((3.201951e+02 -1.058902e+01 -4.571837e+00) (2.044870e+01 -5.621936e-02 -6.723569e-01) (0.000000e+00 0.000000e+00 0.000000e+00)) ((1.148166e+01 3.672990e+02 -7.351253e-01) (-1.364363e-01 2.149684e+01 -2.481398e-01) (0.000000e+00 0.000000e+00 0.000000e+00))
432           	((3.204328e+02 -1.082207e+01 -4.660051e+00) (2.045515e+01 -5.185442e-02 -6.768224e-01) (0.000000e+00 0.000000e+00 0.000000e+00)) ((1.176756e+01 3.677277e+02 -1.074099e+00) (-1.403947e-01 2.149866e+01 -2.531426e-01) (0.000000e+00 0.000000e+00 0.000000e+00))
433           	((3.207531e+02 -1.109877e+01 -4.746753e+00) (2.046044e+01 -4.733237e-02 -6.807469e-01) (0.000000e+00 0.000000e+00 0.000000e+00)) ((1.213124e+01 3.682349e+02 -1.379625e+00) (-1.442554e-01 2.150008e+01 -2.581819e-01) (0.000000e+00 0.000000e+00 0.000000e+00))
434           	((3.211594e+02 -1.140163e+01 -4.781238e+00) (2.046510e+01 -4.281032e-02 -6.844207e-01) (0.000000e+00 0.000000e+00 0.000000e+00)) ((1.254333e+01 3.688375e+02 -1.629198e+00) (-1.478928e-01 2.150158e+01 -2.632017e-01) (0.000000e+00 0.000000e+00 0.000000e+00))
435           	((3.216449e+02 -1.179093e+01 -4.752686e+00) (2.046859e+01 -3.854066e-02 -6.870896e-01) (0.000000e+00 0.000000e+00 0.000000e+00)) ((1.306137e+01 3.695379e+02 -1.789611e+00) (-1.509903e-01 2.150235e+01 -2.682684e-01) (0.000000e+00 0.000000e+00 0.000000e+00))
436           	((3.221814e+02 -1.224203e+01 -4.633678e+00) (2.047167e+01 -3.494546e-02 -6.897214e-01) (0.000000e+00 0.000000e+00 0.000000e+00)) ((1.365149e+01 3.703203e+02 -1.869179e+00) (-1.532140e-01 2.150312e+01 -2.730954e-01) (0.000000e+00 0.000000e+00 0.000000e+00))
437           	((3.227638e+02 -1.276361e+01 -4.437407e+00) (2.047335e+01 -3.233743e-02 -6.912836e-01) (0.000000e+00 0.000000e+00 0.000000e+00)) ((1.431814e+01 3.711712e+02 -1.846734e+00) (-1.543047e-01 2.150281e+01 -2.775551e-01) (0.000000e+00 0.000000e+00 0.000000e+00))
438           	((3.233657e+02 -1.337978e+01 -4.144007e+00) (2.047437e+01 -3.099505e-02 -6.924850e-01) (0.000000e+00 0.000000e+00 0.000000e+00)) ((1.507074e+01 3.720635e+02 -1.738380e+00) (-1.538917e-01 2.150216e+01 -2.816381e-01) (0.000000e+00 0.000000e+00 0.000000e+00))
439           	((3.239787e+02 -1.408144e+01 -3.816208e+00) (2.047415e+01 -3.090293e-02 -6.928715e-01) (0.000000e+00 0.000000e+00 0.000000e+00)) ((1.590421e+01 3.729726e+02 -1.537335e+00) (-1.520968e-01 2.150050e+01 -2.852357e-01) (0.000000e+00 0.000000e+00 0.000000e+00))
440           	((3.245624e+02 -1.487703e+01 -3.467661e+00) (2.047344e+01 -3.213095e-02 -6.928816e-01) (0.000000e+00 0.000000e+00 0.000000e+00)) ((1.682982e+01 3.738398e+02 -1.251342e+00) (-1.487686e-01 2.149857e+01 -2.882642e-01) (0.000000e+00 0.000000e+00 0.000000e+00))
441           	((3.250980e+02 -1.573577e+01 -3.134673e+00) (2.047157e+01 -3.467954e-02 -6.923503e-01) (0.000000e+00 0.000000e+00 0.000000e+00)) ((1.783008e+01 3.746422e+02 -8.667844e-01) (-1.439162e-01 2.149550e+01 -2.907467e-01) (0.000000e+00 0.000000e+00 0.000000e+00))
442           	((3.255376e+02 -1.661242e+01 -2.856707e+00) (2.046953e+01 -3.845427e-02 -6.915460e-01) (0.000000e+00 0.000000e+00 0.000000e+00)) ((1.884901e+01 3.753116e+02 -4.002919e-01) (-1.376605e-01 2.149230e+01 -2.927850e-01) (0.000000e+00 0.000000e+00 0.000000e+00))
443           	((3.258798e+02 -1.747083e+01 -2.665972e+00) (2.046645e+01 -4.270574e-02 -6.900022e-01) (0.000000e+00 0.000000e+00 0.000000e+00)) ((1.986855e+01 3.758377e+02 1.534626e-01) (-1.307847e-01 2.148806e+01 -2.943470e-01) (0.000000e+00 0.000000e+00 0.000000e+00))
444           	((3.261079e+02 -1.828056e+01 -2.585819e+00) (2.046383e+01 -4.757571e-02 -6.885384e-01) (0.000000e+00 0.000000e+00 0.000000e+00)) ((2.085902e+01 3.761907e+02 7.580465e-01) (-1.231819e-01 2.148422e+01 -2.955131e-01) (0.000000e+00 0.000000e+00 0.000000e+00))
445           	((3.262342e+02 -1.898787e+01 -2.644023e+00) (2.046012e+01 -5.261269e-02 -6.864286e-01) (0.000000e+00 0.000000e+00 0.000000e+00)) ((2.177067e+01 3.763768e+02 1.416781e+00) (-1.153828e-01 2.147927e+01 -2.962178e-01) (0.000000e+00 0.000000e+00 0.000000e+00))
446           	((3.262516e+02 -1.955398e+01 -2.810149e+00) (2.045687e+01 -5.738053e-02 -6.845751e-01) (0.000000e+00 0.000000e+00 0.000000e+00)) ((2.255868e+01 3.763744e+02 2.089063e+00) (-1.078150e-01 2.147474e+01 -2.966834e-01) (0.000000e+00 0.000000e+00 0.000000e+00))
447           	((3.261869e+02 -1.991528e+01 -3.038533e+00) (2.045294e+01 -6.156440e-02 -6.825816e-01) (0.000000e+00 0.000000e+00 0.000000e+00)) ((2.316286e+01 3.762330e+02 2.765789e+00) (-1.008473e-01 2.146973e+01 -2.968458e-01) (0.000000e+00 0.000000e+00 0.000000e+00))
448           	((3.260382e+02 -2.005923e+01 -3.259538e+00) (2.044942e+01 -6.509892e-02 -6.808580e-01) (0.000000e+00 0.000000e+00 0.000000e+00)) ((2.356970e+01 3.759601e+02 3.414086e+00) (-9.451995e-02 2.146551e+01 -2.967985e-01) (0.000000e+00 0.000000e+00 0.000000e+00))
449           	((3.258349e+02 -1.997355e+01 -3.436336e+00) (2.044519e+01 -6.765421e-02 -6.788275e-01) (0.000000e+00 0.000000e+00 0.000000e+00)) ((2.376444e+01 3.756101e+02 4.033966e+00) (-8.923246e-02 2.146115e+01 -2.966730e-01) (0.000000e+00 0.000000e+00 0.000000e+00))
450           	((3.255841e+02 -1.963242e+01 -3.565356e+00) (2.044113e+01 -6.917284e-02 -6.773335e-01) (0.000000e+00 0.000000e+00 0.000000e+00)) ((2.371472e+01 3.751943e+02 4.599406e+00) (-8.498997e-02 2.145765e+01 -2.965321e-01) (0.000000e+00 0.000000e+00 0.000000e+00))
451           	((3.253078e+02 -1.901410e+01 -3.636559e+00) (2.043645e+01 -6.945378e-02 -6.757964e-01) (0.000000e+00 0.000000e+00 0.000000e+00)) ((2.340016e+01 3.747631e+02 5.099474e+00) (-8.197416e-02 2.145445e+01 -2.965164e-01) (0.000000e+00 0.000000e+00 0.000000e+00))
452           	((3.249750e+02 -1.808353e+01 -3.648535e+00) (2.043195e+01 -6.843807e-02 -6.746287e-01) (0.000000e+00 0.000000e+00 0.000000e+00)) ((2.277370e+01 3.742993e+02 5.499614e+00) (-8.029379e-02 2.145250e+01 -2.965582e-01) (0.000000e+00 0.000000e+00 0.000000e+00))
453           	((3.246185e+02 -1.691105e+01 -3.652977e+00) (2.042687e+01 -6.581291e-02 -6.731332e-01) (0.000000e+00 0.000000e+00 0.000000e+00)) ((2.189746e+01 3.738270e+02 5.819938e+00) (-8.021417e-02 2.145097e+01 -2.968233e-01) (0.000000e+00 0.000000e+00 0.000000e+00))
454           	((3.242302e+02 -1.553916e+01 -3.659767e+00) (2.042233e+01 -6.160278e-02 -6.717232e-01) (0.000000e+00 0.000000e+00 0.000000e+00)) ((2.080308e+01 3.733296e+02 6.055679e+00) (-8.167034e-02 2.145090e+01 -2.973156e-01) (0.000000e+00 0.000000e+00 0.000000e+00))
455           	((3.238052e+02 -1.402422e+01 -3.705247e+00) (2.041747e+01 -5.592308e-02 -6.700425e-01) (0.000000e+00 0.000000e+00 0.000000e+00)) ((1.953762e+01 3.728024e+02 6.227260e+00) (-8.465129e-02 2.145129e+01 -2.979956e-01) (0.000000e+00 0.000000e+00 0.000000e+00))
456           	((3.233180e+02 -1.244137e+01 -3.802329e+00) (2.041264e+01 -4.967863e-02 -6.679559e-01) (0.000000e+00 0.000000e+00 0.000000e+00)) ((1.815429e+01 3.722097e+02 6.339377e+00) (-8.828091e-02 2.145250e+01 -2.986731e-01) (0.000000e+00 0.000000e+00 0.000000e+00))
457           	((3.227906e+02 -1.084611e+01 -3.945540e+00) (2.040716e+01 -4.297630e-02 -6.654873e-01) (0.000000e+00 0.000000e+00 0.000000e+00)) ((1.670685e+01 3.715836e+02 6.425021e+00) (-9.255320e-02 2.145366e+01 -2.992902e-01) (0.000000e+00 0.000000e+00 0.000000e+00))
458           	((3.222381e+02 -9.321560e+00 -4.137339e+00) (2.040234e+01 -3.646959e-02 -6.628844e-01) (0.000000e+00 0.000000e+00 0.000000e+00)) ((1.527286e+01 3.709361e+02 6.489650e+00) (-9.683121e-02 2.145584e+01 -2.995164e-01) (0.000000e+00 0.000000e+00 0.000000e+00))
459           	((3.216573e+02 -7.922301e+00 -4.377701e+00) (2.039761e+01 -3.050521e-02 -6.602193e-01) (0.000000e+00 0.000000e+00 0.000000e+00)) ((1.390005e+01 3.702603e+02 6.558263e+00) (-1.008493e-01 2.145825e+01 -2.992925e-01) (0.000000e+00 0.000000e+00 0.000000e+00))