# Forces      
# CofR        : (0.000000e+00 0.000000e+00 0.000000e+00)
# Time        forces(pressure viscous porous)	moments(pressure viscous porous)
350           	((6.646987e+00 -1.882457e+00 -3.718074e+00) (2.406984e-01 -2.679839e-02 1.051606e-01) (0.000000e+00 0.000000e+00 0.000000e+00)) ((1.708891e+00 7.191155e+00 -6.882653e-01) (2.779738e-02 1.906914e-01 -1.198768e-02) (0.000000e+00 0.000000e+00 0.000000e+00))
351           	((6.730665e+00 -1.738286e+00 -3.850379e+00) (2.424365e-01 -2.639541e-02 1.052439e-01) (0.000000e+00 0.000000e+00 0.000000e+00)) ((1.580732e+00 7.320084e+00 -6.308406e-01) (2.736157e-02 1.921857e-01 -1.172264e-02) (0.000000e+00 0.000000e+00 0.000000e+00))
352           	((6.802961e+00 -1.580553e+00 -3.973228e+00) (2.440411e-01 -2.585788e-02 1.051522e-01) (0.000000e+00 0.000000e+00 0.000000e+00)) ((1.440031e+00 7.435892e+00 -5.688833e-01) (2.679772e-02 1.936079e-01 -1.142605e-02) (0.000000e+00 0.000000e+00 0.000000e+00))
353           	((6.853970e+00 -1.414396e+00 -4.077552e+00) (2.453808e-01 -2.517223e-02 1.048390e-01) (0.000000e+00 0.000000e+00 0.000000e+00)) ((1.291464e+00 7.525875e+00 -5.042117e-01) (2.609615e-02 1.948493e-01 -1.109918e-02) (0.000000e+00 0.000000e+00 0.000000e+00))
354           	((6.882367e+00 -1.244427e+00 -4.161291e+00) (2.463879e-01 -2.438177e-02 1.043313e-01) (0.000000e+00 0.000000e+00 0.000000e+00)) ((1.139199e+00 7.587636e+00 -4.384054e-01) (2.529264e-02 1.958409e-01 -1.074958e-02) (0.000000e+00 0.000000e+00 0.000000e+00))
355           	((6.886752e+00 -1.072394e+00 -4.223160e+00) (2.470805e-01 -2.351066e-02 1.037007e-01) (0.000000e+00 0.000000e+00 0.000000e+00)) ((9.849540e-01 7.619052e+00 -3.719813e-01) (2.440588e-02 1.965783e-01 -1.038441e-02) (0.000000e+00 0.000000e+00 0.000000e+00))
356           	((6.866025e+00 -8.976770e-01 -4.262185e+00) (2.474948e-01 -2.260997e-02 1.029324e-01) (0.000000e+00 0.000000e+00 0.000000e+00)) ((8.282116e-01 7.618340e+00 -3.045745e-01) (2.348591e-02 1.970988e-01 -1.001433e-02) (0.000000e+00 0.000000e+00 0.000000e+00))
357           	((6.826294e+00 -7.254148e-01 -4.282813e+00) (2.476193e-01 -2.168839e-02 1.020537e-01) (0.000000e+00 0.000000e+00 0.000000e+00)) ((6.736132e-01 7.592640e+00 -2.381065e-01) (2.253994e-02 1.973854e-01 -9.645924e-03) (0.000000e+00 0.000000e+00 0.000000e+00))
358           	((6.773788e+00 -5.573333e-01 -4.290189e+00) (2.475960e-01 -2.077314e-02 1.010579e-01) (0.000000e+00 0.000000e+00 0.000000e+00)) ((5.226746e-01 7.549437e+00 -1.732850e-01) (2.159273e-02 1.975706e-01 -9.276311e-03) (0.000000e+00 0.000000e+00 0.000000e+00))
359           	((6.713776e+00 -3.951744e-01 -4.288336e+00) (2.474098e-01 -1.987973e-02 9.992864e-02) (0.000000e+00 0.000000e+00 0.000000e+00)) ((3.769651e-01 7.495106e+00 -1.109138e-01) (2.065947e-02 1.976495e-01 -8.910233e-03) (0.000000e+00 0.000000e+00 0.000000e+00))
360           	((6.653278e+00 -2.422760e-01 -4.282260e+00) (2.470506e-01 -1.898941e-02 9.860973e-02) (0.000000e+00 0.000000e+00 0.000000e+00)) ((2.394978e-01 7.438127e+00 -5.230221e-02) (1.972646e-02 1.976328e-01 -8.537683e-03) (0.000000e+00 0.000000e+00 0.000000e+00))
361           	((6.596025e+00 -9.867200e-02 -4.274703e+00) (2.465469e-01 -1.813884e-02 9.711575e-02) (0.000000e+00 0.000000e+00 0.000000e+00)) ((1.102935e-01 7.383200e+00 2.307957e-03) (1.883052e-02 1.975432e-01 -8.171564e-03) (0.000000e+00 0.000000e+00 0.000000e+00))
362           	((6.551299e+00 3.572728e-02 -4.273580e+00) (2.458546e-01 -1.733936e-02 9.542962e-02) (0.000000e+00 0.000000e+00 0.000000e+00)) ((-1.084921e-02 7.342193e+00 5.281316e-02) (1.798335e-02 1.973452e-01 -7.815416e-03) (0.000000e+00 0.000000e+00 0.000000e+00))
363           	((6.521623e+00 1.604929e-01 -4.281914e+00) (2.449658e-01 -1.656107e-02 9.356152e-02) (0.000000e+00 0.000000e+00 0.000000e+00)) ((-1.236684e-01 7.319054e+00 9.893695e-02) (1.715584e-02 1.970310e-01 -7.455205e-03) (0.000000e+00 0.000000e+00 0.000000e+00))
364           	((6.510208e+00 2.783900e-01 -4.302988e+00) (2.438702e-01 -1.578747e-02 9.147421e-02) (0.000000e+00 0.000000e+00 0.000000e+00)) ((-2.307513e-01 7.318357e+00 1.416856e-01) (1.633047e-02 1.966004e-01 -7.081623e-03) (0.000000e+00 0.000000e+00 0.000000e+00))
365           	((6.515446e+00 3.868053e-01 -4.336154e+00) (2.424497e-01 -1.497153e-02 8.915227e-02) (0.000000e+00 0.000000e+00 0.000000e+00)) ((-3.299003e-01 7.338917e+00 1.801268e-01) (1.545663e-02 1.959513e-01 -6.681691e-03) (0.000000e+00 0.000000e+00 0.000000e+00))
366           	((6.534025e+00 4.821281e-01 -4.379115e+00) (2.407759e-01 -1.410738e-02 8.670885e-02) (0.000000e+00 0.000000e+00 0.000000e+00)) ((-4.179315e-01 7.377183e+00 2.131023e-01) (1.452582e-02 1.951180e-01 -6.244411e-03) (0.000000e+00 0.000000e+00 0.000000e+00))
367           	((6.564379e+00 5.604312e-01 -4.429423e+00) (2.387874e-01 -1.324688e-02 8.407289e-02) (0.000000e+00 0.000000e+00 0.000000e+00)) ((-4.913588e-01 7.430996e+00 2.395012e-01) (1.359258e-02 1.940635e-01 -5.789749e-03) (0.000000e+00 0.000000e+00 0.000000e+00))
368           	((6.599894e+00 6.130549e-01 -4.481629e+00) (2.364397e-01 -1.241682e-02 8.130885e-02) (0.000000e+00 0.000000e+00 0.000000e+00)) ((-5.423819e-01 7.492346e+00 2.563519e-01) (1.268055e-02 1.927321e-01 -5.326623e-03) (0.000000e+00 0.000000e+00 0.000000e+00))
369           	((6.635097e+00 6.336927e-01 -4.531458e+00) (2.338158e-01 -1.165909e-02 7.847954e-02) (0.000000e+00 0.000000e+00 0.000000e+00)) ((-5.652133e-01 7.554477e+00 2.618542e-01) (1.183056e-02 1.911811e-01 -4.865825e-03) (0.000000e+00 0.000000e+00 0.000000e+00))
370           	((6.672124e+00 6.133606e-01 -4.579456e+00) (2.310781e-01 -1.101558e-02 7.563516e-02) (0.000000e+00 0.000000e+00 0.000000e+00)) ((-5.516834e-01 7.619290e+00 2.532448e-01) (1.108271e-02 1.895424e-01 -4.422228e-03) (0.000000e+00 0.000000e+00 0.000000e+00))
371           	((6.707018e+00 5.498403e-01 -4.622931e+00) (2.282849e-01 -1.051119e-02 7.288020e-02) (0.000000e+00 0.000000e+00 0.000000e+00)) ((-4.993945e-01 7.681817e+00 2.301396e-01) (1.046261e-02 1.878404e-01 -4.004257e-03) (0.000000e+00 0.000000e+00 0.000000e+00))
372           	((6.735379e+00 4.411136e-01 -4.657268e+00) (2.255613e-01 -1.017034e-02 7.028316e-02) (0.000000e+00 0.000000e+00 0.000000e+00)) ((-4.061765e-01 7.735824e+00 1.918416e-01) (1.000186e-02 1.861698e-01 -3.624739e-03) (0.000000e+00 0.000000e+00 0.000000e+00))
373           	((6.755960e+00 2.892206e-01 -4.681010e+00) (2.229714e-01 -1.000666e-02 6.791218e-02) (0.000000e+00 0.000000e+00 0.000000e+00)) ((-2.734074e-01 7.779286e+00 1.390774e-01) (9.709689e-03 1.845664e-01 -3.284137e-03) (0.000000e+00 0.000000e+00 0.000000e+00))
374           	((6.768971e+00 1.001210e-01 -4.693484e+00) (2.205956e-01 -9.977720e-03 6.580738e-02) (0.000000e+00 0.000000e+00 0.000000e+00)) ((-1.061334e-01 7.811820e+00 7.365885e-02) (9.554469e-03 1.830911e-01 -2.988280e-03) (0.000000e+00 0.000000e+00 0.000000e+00))
375           	((6.773068e+00 -1.194820e-01 -4.690926e+00) (2.184442e-01 -1.003981e-02 6.391684e-02) (0.000000e+00 0.000000e+00 0.000000e+00)) ((8.950122e-02 7.830553e+00 -2.378446e-03) (9.499851e-03 1.817660e-01 -2.726879e-03) (0.000000e+00 0.000000e+00 0.000000e+00))
376           	((6.772869e+00 -3.559533e-01 -4.673717e+00) (2.166285e-01 -1.011640e-02 6.223219e-02) (0.000000e+00 0.000000e+00 0.000000e+00)) ((3.012868e-01 7.839216e+00 -8.456996e-02) (9.478651e-03 1.806903e-01 -2.489260e-03) (0.000000e+00 0.000000e+00 0.000000e+00))
377           	((6.772206e+00 -5.950868e-01 -4.644255e+00) (2.151348e-01 -1.019347e-02 6.071764e-02) (0.000000e+00 0.000000e+00 0.000000e+00)) ((5.162810e-01 7.841883e+00 -1.681646e-01) (9.478746e-03 1.798598e-01 -2.275133e-03) (0.000000e+00 0.000000e+00 0.000000e+00))
378           	((6.777585e+00 -8.292023e-01 -4.605332e+00) (2.140754e-01 -1.026321e-02 5.935884e-02) (0.000000e+00 0.000000e+00 0.000000e+00)) ((7.272700e-01 7.845154e+00 -2.507968e-01) (9.496129e-03 1.793776e-01 -2.089438e-03) (0.000000e+00 0.000000e+00 0.000000e+00))
379           	((6.794320e+00 -1.043711e+00 -4.561286e+00) (2.134833e-01 -1.036506e-02 5.815546e-02) (0.000000e+00 0.000000e+00 0.000000e+00)) ((9.210466e-01 7.855202e+00 -3.273298e-01) (9.566254e-03 1.792718e-01 -1.949254e-03) (0.000000e+00 0.000000e+00 0.000000e+00))
380           	((6.822538e+00 -1.232318e+00 -4.511194e+00) (2.133133e-01 -1.055146e-02 5.716421e-02) (0.000000e+00 0.000000e+00 0.000000e+00)) ((1.091819e+00 7.871226e+00 -3.955652e-01) (9.739980e-03 1.794834e-01 -1.873129e-03) (0.000000e+00 0.000000e+00 0.000000e+00))
381           	((6.858784e+00 -1.395877e+00 -4.452945e+00) (2.135028e-01 -1.088368e-02 5.637476e-02) (0.000000e+00 0.000000e+00 0.000000e+00)) ((1.240184e+00 7.889283e+00 -4.556839e-01) (1.007554e-02 1.799578e-01 -1.877583e-03) (0.000000e+00 0.000000e+00 0.000000e+00))
382           	((6.906773e+00 -1.533299e+00 -4.388841e+00) (2.139649e-01 -1.141087e-02 5.578590e-02) (0.000000e+00 0.000000e+00 0.000000e+00)) ((1.365145e+00 7.913696e+00 -5.070813e-01) (1.061976e-02 1.806159e-01 -1.984825e-03) (0.000000e+00 0.000000e+00 0.000000e+00))
383           	((6.967250e+00 -1.649494e+00 -4.320558e+00) (2.146178e-01 -1.209846e-02 5.545784e-02) (0.000000e+00 0.000000e+00 0.000000e+00)) ((1.471273e+00 7.945623e+00 -5.512511e-01) (1.133660e-02 1.813658e-01 -2.180581e-03) (0.000000e+00 0.000000e+00 0.000000e+00))
384           	((7.032879e+00 -1.747853e+00 -4.245188e+00) (2.153421e-01 -1.285735e-02 5.544762e-02) (0.000000e+00 0.000000e+00 0.000000e+00)) ((1.561578e+00 7.977245e+00 -5.889221e-01) (1.214273e-02 1.820792e-01 -2.444615e-03) (0.000000e+00 0.000000e+00 0.000000e+00))
385           	((7.112062e+00 -1.828729e+00 -4.172447e+00) (2.160579e-01 -1.362913e-02 5.577307e-02) (0.000000e+00 0.000000e+00 0.000000e+00)) ((1.636433e+00 8.019677e+00 -6.203352e-01) (1.298245e-02 1.826809e-01 -2.758226e-03) (0.000000e+00 0.000000e+00 0.000000e+00))
386           	((7.206925e+00 -1.890769e+00 -4.107647e+00) (2.166466e-01 -1.431355e-02 5.638807e-02) (0.000000e+00 0.000000e+00 0.000000e+00)) ((1.694680e+00 8.076292e+00 -6.451791e-01) (1.375922e-02 1.830748e-01 -3.085962e-03) (0.000000e+00 0.000000e+00 0.000000e+00))
387           	((7.310833e+00 -1.928058e+00 -4.052152e+00) (2.171173e-01 -1.481991e-02 5.728775e-02) (0.000000e+00 0.000000e+00 0.000000e+00)) ((1.731227e+00 8.141354e+00 -6.618444e-01) (1.437943e-02 1.832712e-01 -3.395978e-03) (0.000000e+00 0.000000e+00 0.000000e+00))
388           	((7.436075e+00 -1.942447e+00 -4.021632e+00) (2.174072e-01 -1.510429e-02 5.842805e-02) (0.000000e+00 0.000000e+00 0.000000e+00)) ((1.747585e+00 8.231635e+00 -6.712995e-01) (1.480376e-02 1.832284e-01 -3.668781e-03) (0.000000e+00 0.000000e+00 0.000000e+00))
389           	((7.583328e+00 -1.920676e+00 -4.024467e+00) (2.173949e-01 -1.513299e-02 5.976651e-02) (0.000000e+00 0.000000e+00 0.000000e+00)) ((1.731887e+00 8.350671e+00 -6.689704e-01) (1.499677e-02 1.828474e-01 -3.889946e-03) (0.000000e+00 0.000000e+00 0.000000e+00))
390           	((7.746671e+00 -1.859923e+00 -4.062552e+00) (2.169651e-01 -1.488718e-02 6.123292e-02) (0.000000e+00 0.000000e+00 0.000000e+00)) ((1.681297e+00 8.494383e+00 -6.536798e-01) (1.493420e-02 1.820447e-01 -4.044984e-03) (0.000000e+00 0.000000e+00 0.000000e+00))
391           	((7.912232e+00 -1.753215e+00 -4.131414e+00) (2.160694e-01 -1.441773e-02 6.275180e-02) (0.000000e+00 0.000000e+00 0.000000e+00)) ((1.589413e+00 8.649399e+00 -6.226094e-01) (1.466334e-02 1.807980e-01 -4.148505e-03) (0.000000e+00 0.000000e+00 0.000000e+00))
392           	((8.069196e+00 -1.599816e+00 -4.226386e+00) (2.147586e-01 -1.374779e-02 6.427777e-02) (0.000000e+00 0.000000e+00 0.000000e+00)) ((1.455358e+00 8.805327e+00 -5.749491e-01) (1.419858e-02 1.791666e-01 -4.198529e-03) (0.000000e+00 0.000000e+00 0.000000e+00))
393           	((8.206754e+00 -1.405979e+00 -4.340783e+00) (2.131309e-01 -1.288555e-02 6.575705e-02) (0.000000e+00 0.000000e+00 0.000000e+00)) ((1.284677e+00 8.950754e+00 -5.124991e-01) (1.354668e-02 1.772569e-01 -4.197488e-03) (0.000000e+00 0.000000e+00 0.000000e+00))
394           	((8.313345e+00 -1.193627e+00 -4.464312e+00) (2.113443e-01 -1.191791e-02 6.713347e-02) (0.000000e+00 0.000000e+00 0.000000e+00)) ((1.096462e+00 9.072490e+00 -4.423525e-01) (1.278580e-02 1.752273e-01 -4.163548e-03) (0.000000e+00 0.000000e+00 0.000000e+00))
395           	((8.396186e+00 -9.807257e-01 -4.596463e+00) (2.095941e-01 -1.089333e-02 6.843723e-02) (0.000000e+00 0.000000e+00 0.000000e+00)) ((9.068353e-01 9.176821e+00 -3.699167e-01) (1.195241e-02 1.732503e-01 -4.098885e-03) (0.000000e+00 0.000000e+00 0.000000e+00))
396           	((8.458850e+00 -7.867234e-01 -4.734488e+00) (2.079891e-01 -9.864659e-03 6.964880e-02) (0.000000e+00 0.000000e+00 0.000000e+00)) ((7.330598e-01 9.266504e+00 -3.018000e-01) (1.108925e-02 1.714285e-01 -4.017958e-03) (0.000000e+00 0.000000e+00 0.000000e+00))
397           	((8.512221e+00 -6.208664e-01 -4.878289e+00) (2.065904e-01 -8.874999e-03 7.076469e-02) (0.000000e+00 0.000000e+00 0.000000e+00)) ((5.834901e-01 9.351978e+00 -2.411281e-01) (1.023428e-02 1.698185e-01 -3.932586e-03) (0.000000e+00 0.000000e+00 0.000000e+00))
398           	((8.566498e+00 -4.934654e-01 -5.026151e+00) (2.054742e-01 -7.899930e-03 7.173529e-02) (0.000000e+00 0.000000e+00 0.000000e+00)) ((4.673406e-01 9.442004e+00 -1.917274e-01) (9.370423e-03 1.685048e-01 -3.837037e-03) (0.000000e+00 0.000000e+00 0.000000e+00))
399           	((8.629844e+00 -4.011741e-01 -5.177588e+00) (2.047409e-01 -6.996796e-03 7.253189e-02) (0.000000e+00 0.000000e+00 0.000000e+00)) ((3.816143e-01 9.544253e+00 -1.528948e-01) (8.548064e-03 1.675876e-01 -3.746319e-03) (0.000000e+00 0.000000e+00 0.000000e+00))
400           	((8.703234e+00 -3.440162e-01 -5.325329e+00) (2.045183e-01 -6.163946e-03 7.315043e-02) (0.000000e+00 0.000000e+00 0.000000e+00)) ((3.263691e-01 9.657040e+00 -1.252457e-01) (7.769732e-03 1.671852e-01 -3.656865e-03) (0.000000e+00 0.000000e+00 0.000000e+00))
401           	((8.781417e+00 -3.220269e-01 -5.461503e+00) (2.049090e-01 -5.394404e-03 7.359108e-02) (0.000000e+00 0.000000e+00 0.000000e+00)) ((3.020255e-01 9.772230e+00 -1.095643e-01) (7.031378e-03 1.673919e-01 -3.561425e-03) (0.000000e+00 0.000000e+00 0.000000e+00))
402           	((8.859545e+00 -3.230887e-01 -5.579131e+00) (2.058694e-01 -4.707720e-03 7.392402e-02) (0.000000e+00 0.000000e+00 0.000000e+00)) ((2.983938e-01 9.882502e+00 -1.023767e-01) (6.350605e-03 1.681517e-01 -3.467577e-03) (0.000000e+00 0.000000e+00 0.000000e+00))
403           	((8.931438e+00 -3.339751e-01 -5.672162e+00) (2.073791e-01 -4.136836e-03 7.422836e-02) (0.000000e+00 0.000000e+00 0.000000e+00)) ((3.040765e-01 9.979658e+00 -9.968316e-02) (5.761753e-03 1.694250e-01 -3.379966e-03) (0.000000e+00 0.000000e+00 0.000000e+00))
404           	((8.993723e+00 -3.455340e-01 -5.736634e+00) (2.093717e-01 -3.669538e-03 7.448527e-02) (0.000000e+00 0.000000e+00 0.000000e+00)) ((3.113167e-01 1.005880e+01 -9.858042e-02) (5.255710e-03 1.711583e-01 -3.295211e-03) (0.000000e+00 0.000000e+00 0.000000e+00))
405           	((9.039694e+00 -3.519045e-01 -5.768801e+00) (2.116922e-01 -3.327417e-03 7.467313e-02) (0.000000e+00 0.000000e+00 0.000000e+00)) ((3.150858e-01 1.011224e+01 -9.691655e-02) (4.857551e-03 1.732154e-01 -3.223871e-03) (0.000000e+00 0.000000e+00 0.000000e+00))
406           	((9.071887e+00 -3.396310e-01 -5.771172e+00) (2.142768e-01 -3.076584e-03 7.485526e-02) (0.000000e+00 0.000000e+00 0.000000e+00)) ((3.034742e-01 1.014309e+01 -8.981098e-02) (4.535535e-03 1.755193e-01 -3.159215e-03) (0.000000e+00 0.000000e+00 0.000000e+00))
407           	((9.083033e+00 -3.109592e-01 -5.742356e+00) (2.169533e-01 -2.916463e-03 7.500624e-02) (0.000000e+00 0.000000e+00 0.000000e+00)) ((2.783467e-01 1.014406e+01 -7.784698e-02) (4.295795e-03 1.779189e-01 -3.107550e-03) (0.000000e+00 0.000000e+00 0.000000e+00))
408           	((9.075282e+00 -2.674143e-01 -5.689041e+00) (2.197248e-01 -2.822358e-03 7.513025e-02) (0.000000e+00 0.000000e+00 0.000000e+00)) ((2.408411e-01 1.011953e+01 -6.113347e-02) (4.115432e-03 1.804142e-01 -3.062535e-03) (0.000000e+00 0.000000e+00 0.000000e+00))
409           	((9.043014e+00 -2.039838e-01 -5.610693e+00) (2.225563e-01 -2.767883e-03 7.527428e-02) (0.000000e+00 0.000000e+00 0.000000e+00)) ((1.863412e-01 1.006412e+01 -3.759462e-02) (3.972203e-03 1.829565e-01 -3.024171e-03) (0.000000e+00 0.000000e+00 0.000000e+00))
410           	((8.988101e+00 -1.259973e-01 -5.514541e+00) (2.254038e-01 -2.747784e-03 7.544971e-02) (0.000000e+00 0.000000e+00 0.000000e+00)) ((1.192854e-01 9.982018e+00 -9.004348e-03) (3.862047e-03 1.854985e-01 -2.998384e-03) (0.000000e+00 0.000000e+00 0.000000e+00))
411           	((8.912203e+00 -3.495262e-02 -5.408016e+00) (2.282876e-01 -2.735299e-03 7.570963e-02) (0.000000e+00 0.000000e+00 0.000000e+00)) ((4.072272e-02 9.877071e+00 2.417415e-02) (3.764537e-03 1.880397e-01 -2.982598e-03) (0.000000e+00 0.000000e+00 0.000000e+00))
412           	((8.816162e+00 7.002627e-02 -5.297441e+00) (2.311508e-01 -2.719477e-03 7.600797e-02) (0.000000e+00 0.000000e+00 0.000000e+00)) ((-5.037755e-02 9.752506e+00 6.222931e-02) (3.672675e-03 1.905395e-01 -2.972949e-03) (0.000000e+00 0.000000e+00 0.000000e+00))
413           	((8.701018e+00 1.866056e-01 -5.189196e+00) (2.339505e-01 -2.686071e-03 7.633504e-02) (0.000000e+00 0.000000e+00 0.000000e+00)) ((-1.521961e-01 9.611601e+00 1.041826e-01) (3.574531e-03 1.929642e-01 -2.967366e-03) (0.000000e+00 0.000000e+00 0.000000e+00))
414           	((8.573025e+00 3.145366e-01 -5.090779e+00) (2.366891e-01 -2.595212e-03 7.666502e-02) (0.000000e+00 0.000000e+00 0.000000e+00)) ((-2.647795e-01 9.463126e+00 1.497233e-01) (3.433383e-03 1.953228e-01 -2.947840e-03) (0.000000e+00 0.000000e+00 0.000000e+00))
415           	((8.431513e+00 4.492833e-01 -5.003091e+00) (2.392930e-01 -2.469954e-03 7.695791e-02) (0.000000e+00 0.000000e+00 0.000000e+00)) ((-3.841311e-01 9.307208e+00 1.970491e-01) (3.268186e-03 1.975634e-01 -2.915813e-03) (0.000000e+00 0.000000e+00 0.000000e+00))
416           	((8.282504e+00 5.718627e-01 -4.929749e+00) (2.416744e-01 -2.317604e-03 7.719178e-02) (0.000000e+00 0.000000e+00 0.000000e+00)) ((-4.935186e-01 9.151034e+00 2.392292e-01) (3.084928e-03 1.996162e-01 -2.870401e-03) (0.000000e+00 0.000000e+00 0.000000e+00))
417           	((8.123315e+00 6.816726e-01 -4.866279e+00) (2.438227e-01 -2.118670e-03 7.733373e-02) (0.000000e+00 0.000000e+00 0.000000e+00)) ((-5.927886e-01 8.990741e+00 2.763173e-01) (2.861258e-03 2.014831e-01 -2.803728e-03) (0.000000e+00 0.000000e+00 0.000000e+00))
418           	((7.959520e+00 7.661759e-01 -4.811968e+00) (2.456499e-01 -1.909672e-03 7.739887e-02) (0.000000e+00 0.000000e+00 0.000000e+00)) ((-6.709656e-01 8.831563e+00 3.039066e-01) (2.629004e-03 2.030825e-01 -2.723739e-03) (0.000000e+00 0.000000e+00 0.000000e+00))
419           	((7.793251e+00 8.157251e-01 -4.765255e+00) (2.471442e-01 -1.719820e-03 7.738194e-02) (0.000000e+00 0.000000e+00 0.000000e+00)) ((-7.196484e-01 8.674736e+00 3.189845e-01) (2.412552e-03 2.044093e-01 -2.638701e-03) (0.000000e+00 0.000000e+00 0.000000e+00))
420           	((7.627242e+00 8.364009e-01 -4.723297e+00) (2.482452e-01 -1.580344e-03 7.730355e-02) (0.000000e+00 0.000000e+00 0.000000e+00)) ((-7.441306e-01 8.521162e+00 3.242744e-01) (2.242390e-03 2.054031e-01 -2.558313e-03) (0.000000e+00 0.000000e+00 0.000000e+00))
421           	((7.472995e+00 8.206099e-01 -4.691203e+00) (2.489005e-01 -1.518264e-03 7.710128e-02) (0.000000e+00 0.000000e+00 0.000000e+00)) ((-7.373783e-01 8.382830e+00 3.168172e-01) (2.145906e-03 2.060367e-01 -2.493426e-03) (0.000000e+00 0.000000e+00 0.000000e+00))
422           	((7.332685e+00 7.782065e-01 -4.667882e+00) (2.491320e-01 -1.526360e-03 7.675755e-02) (0.000000e+00 0.000000e+00 0.000000e+00)) ((-7.078317e-01 8.260389e+00 3.005271e-01) (2.120257e-03 2.063343e-01 -2.443719e-03) (0.000000e+00 0.000000e+00 0.000000e+00))
423           	((7.212804e+00 7.087907e-01 -4.656436e+00) (2.488618e-01 -1.628171e-03 7.619784e-02) (0.000000e+00 0.000000e+00 0.000000e+00)) ((-6.544345e-01 8.160613e+00 2.748999e-01) (2.184218e-03 2.062507e-01 -2.415995e-03) (0.000000e+00 0.000000e+00 0.000000e+00))
424           	((7.121266e+00 6.152132e-01 -4.661488e+00) (2.481344e-01 -1.795435e-03 7.546727e-02) (0.000000e+00 0.000000e+00 0.000000e+00)) ((-5.792012e-01 8.092035e+00 2.407877e-01) (2.310522e-03 2.058119e-01 -2.403021e-03) (0.000000e+00 0.000000e+00 0.000000e+00))
425           	((7.046211e+00 5.088916e-01 -4.672767e+00) (2.469837e-01 -2.059157e-03 7.453615e-02) (0.000000e+00 0.000000e+00 0.000000e+00)) ((-4.919758e-01 8.039637e+00 2.023012e-01) (2.527828e-03 2.050594e-01 -2.412382e-03) (0.000000e+00 0.000000e+00 0.000000e+00))
426           	((6.993084e+00 3.928855e-01 -4.693777e+00) (2.454297e-01 -2.431912e-03 7.334548e-02) (0.000000e+00 0.000000e+00 0.000000e+00)) ((-3.950657e-01 8.009897e+00 1.600830e-01) (2.846570e-03 2.040289e-01 -2.448477e-03) (0.000000e+00 0.000000e+00 0.000000e+00))
427           	((6.962867e+00 2.759926e-01 -4.725014e+00) (2.435470e-01 -2.881541e-03 7.186883e-02) (0.000000e+00 0.000000e+00 0.000000e+00)) ((-2.961699e-01 8.003781e+00 1.172935e-01) (3.238388e-03 2.027919e-01 -2.506656e-03) (0.000000e+00 0.000000e+00 0.000000e+00))
428           	((6.946990e+00 1.634280e-01 -4.758572e+00) (2.413445e-01 -3.409385e-03 7.013735e-02) (0.000000e+00 0.000000e+00 0.000000e+00)) ((-1.997571e-01 8.010562e+00 7.574493e-02) (3.706464e-03 2.013451e-01 -2.595749e-03) (0.000000e+00 0.000000e+00 0.000000e+00))
429           	((6.945420e+00 6.079699e-02 -4.793898e+00) (2.388977e-01 -4.005195e-03 6.818502e-02) (0.000000e+00 0.000000e+00 0.000000e+00)) ((-1.108619e-01 8.030222e+00 3.731028e-02) (4.242109e-03 1.997470e-01 -2.713982e-03) (0.000000e+00 0.000000e+00 0.000000e+00))
430           	((6.954951e+00 -2.110609e-02 -4.827337e+00) (2.362187e-01 -4.627511e-03 6.607832e-02) (0.000000e+00 0.000000e+00 0.000000e+00)) ((-3.922090e-02 8.058746e+00 6.017188e-03) (4.809680e-03 1.979882e-01 -2.851933e-03) (0.000000e+00 0.000000e+00 0.000000e+00))
431           	((6.957467e+00 -8.059804e-02 -4.843816e+00) (2.333820e-01 -5.267217e-03 6.382269e-02) (0.000000e+00 0.000000e+00 0.000000e+00)) ((1.363988e-02 8.073695e+00 -1.776359e-02) (5.399637e-03 1.961314e-01 -3.017002e-03) (0.000000e+00 0.000000e+00 0.000000e+00))
432           	((6.950979e+00 -1.143178e-01 -4.841741e+00) (2.304850e-01 -5.903166e-03 6.149046e-02) (0.000000e+00 0.000000e+00 0.000000e+00)) ((4.463107e-02 8.072884e+00 -3.273962e-02) (5.990471e-03 1.942417e-01 -3.205706e-03) (0.000000e+00 0.000000e+00 0.000000e+00))
433           	((6.933493e+00 -1.249898e-01 -4.818217e+00) (2.275540e-01 -6.517034e-03 5.913016e-02) (0.000000e+00 0.000000e+00 0.000000e+00)) ((5.605879e-02 8.053552e+00 -3.972093e-02) (6.567670e-03 1.923294e-01 -3.416513e-03) (0.000000e+00 0.000000e+00 0.000000e+00))
434           	((6.902941e+00 -1.133424e-01 -4.771759e+00) (2.245831e-01 -7.103528e-03 5.681278e-02) (0.000000e+00 0.000000e+00 0.000000e+00)) ((4.852267e-02 8.013438e+00 -3.865694e-02) (7.125388e-03 1.903663e-01 -3.650232e-03) (0.000000e+00 0.000000e+00 0.000000e+00))
435           	((6.862049e+00 -8.392665e-02 -4.707099e+00) (2.215703e-01 -7.682360e-03 5.454646e-02) (0.000000e+00 0.000000e+00 0.000000e+00)) ((2.582919e-02 7.957088e+00 -3.084495e-02) (7.682274e-03 1.883486e-01 -3.909103e-03) (0.000000e+00 0.000000e+00 0.000000e+00))
436           	((6.818125e+00 -4.505539e-02 -4.631375e+00) (2.185761e-01 -8.248312e-03 5.239845e-02) (0.000000e+00 0.000000e+00 0.000000e+00)) ((-4.719218e-03 7.893968e+00 -1.907125e-02) (8.230021e-03 1.863102e-01 -4.189167e-03) (0.000000e+00 0.000000e+00 0.000000e+00))
437           	((6.769661e+00 -7.761027e-03 -4.546085e+00) (2.156044e-01 -8.792256e-03 5.038871e-02) (0.000000e+00 0.000000e+00 0.000000e+00)) ((-3.346957e-02 7.823133e+00 -7.513632e-03) (8.760878e-03 1.842514e-01 -4.483595e-03) (0.000000e+00 0.000000e+00 0.000000e+00))
438           	((6.716329e+00 2.450743e-02 -4.454024e+00) (2.126776e-01 -9.315885e-03 4.857605e-02) (0.000000e+00 0.000000e+00 0.000000e+00)) ((-5.735548e-02 7.745632e+00 2.690675e-03) (9.275736e-03 1.821779e-01 -4.782777e-03) (0.000000e+00 0.000000e+00 0.000000e+00))
439           	((6.657384e+00 4.541866e-02 -4.357274e+00) (2.098025e-01 -9.811781e-03 4.695954e-02) (0.000000e+00 0.000000e+00 0.000000e+00)) ((-7.098817e-02 7.661327e+00 9.335937e-03) (9.769918e-03 1.800946e-01 -5.076644e-03) (0.000000e+00 0.000000e+00 0.000000e+00))
440           	((6.593336e+00 5.118414e-02 -4.257280e+00) (2.070013e-01 -1.027291e-02 4.556327e-02) (0.000000e+00 0.000000e+00 0.000000e+00)) ((-7.112504e-02 7.570844e+00 1.101564e-02) (1.023436e-02 1.780141e-01 -5.353795e-03) (0.000000e+00 0.000000e+00 0.000000e+00))
441           	((6.523554e+00 3.693225e-02 -4.154930e+00) (2.043331e-01 -1.070752e-02 4.440173e-02) (0.000000e+00 0.000000e+00 0.000000e+00)) ((-5.351839e-02 7.473641e+00 5.832763e-03) (1.067492e-02 1.759861e-01 -5.608179e-03) (0.000000e+00 0.000000e+00 0.000000e+00))
442           	((6.453811e+00 -1.482349e-04 -4.054721e+00) (2.017894e-01 -1.107747e-02 4.349650e-02) (0.000000e+00 0.000000e+00 0.000000e+00)) ((-1.582709e-02 7.376039e+00 -7.137292e-03) (1.105514e-02 1.739951e-01 -5.824603e-03) (0.000000e+00 0.000000e+00 0.000000e+00))
443           	((6.379570e+00 -5.368441e-02 -3.954388e+00) (1.994102e-01 -1.135961e-02 4.281332e-02) (0.000000e+00 0.000000e+00 0.000000e+00)) ((3.634745e-02 7.273062e+00 -2.594037e-02) (1.134692e-02 1.720846e-01 -5.990231e-03) (0.000000e+00 0.000000e+00 0.000000e+00))
444           	((6.307627e+00 -1.245161e-01 -3.859634e+00) (1.972290e-01 -1.153924e-02 4.231835e-02) (0.000000e+00 0.000000e+00 0.000000e+00)) ((1.037305e-01 7.172603e+00 -5.124580e-02) (1.153932e-02 1.702929e-01 -6.103500e-03) (0.000000e+00 0.000000e+00 0.000000e+00))
445           	((6.231906e+00 -2.069432e-01 -3.766768e+00) (1.952235e-01 -1.158521e-02 4.201605e-02) (0.000000e+00 0.000000e+00 0.000000e+00)) ((1.813358e-01 7.067380e+00 -8.113531e-02) (1.160218e-02 1.685961e-01 -6.154379e-03) (0.000000e+00 0.000000e+00 0.000000e+00))
446           	((6.153209e+00 -2.971254e-01 -3.676547e+00) (1.934621e-01 -1.151287e-02 4.185872e-02) (0.000000e+00 0.000000e+00 0.000000e+00)) ((2.656190e-01 6.957959e+00 -1.145875e-01) (1.155349e-02 1.670691e-01 -6.154293e-03) (0.000000e+00 0.000000e+00 0.000000e+00))
447           	((6.075355e+00 -3.883828e-01 -3.592916e+00) (1.919782e-01 -1.129518e-02 4.186785e-02) (0.000000e+00 0.000000e+00 0.000000e+00)) ((3.505819e-01 6.849236e+00 -1.494769e-01) (1.137023e-02 1.657354e-01 -6.099674e-03) (0.000000e+00 0.000000e+00 0.000000e+00))
448           	((6.002973e+00 -4.745347e-01 -3.518190e+00) (1.907666e-01 -1.091237e-02 4.200518e-02) (0.000000e+00 0.000000e+00 0.000000e+00)) ((4.307146e-01 6.746527e+00 -1.835367e-01) (1.103561e-02 1.646015e-01 -5.988572e-03) (0.000000e+00 0.000000e+00 0.000000e+00))
449           	((5.932490e+00 -5.435367e-01 -3.449302e+00) (1.898440e-01 -1.036767e-02 4.229139e-02) (0.000000e+00 0.000000e+00 0.000000e+00)) ((4.954076e-01 6.645714e+00 -2.124216e-01) (1.055199e-02 1.636750e-01 -5.825824e-03) (0.000000e+00 0.000000e+00 0.000000e+00))
450           	((5.870559e+00 -5.888017e-01 -3.391064e+00) (1.891784e-01 -9.703098e-03 4.272032e-02) (0.000000e+00 0.000000e+00 0.000000e+00)) ((5.385264e-01 6.555049e+00 -2.336977e-01) (9.957576e-03 1.629310e-01 -5.628736e-03) (0.000000e+00 0.000000e+00 0.000000e+00))
451           	((5.817377e+00 -6.039305e-01 -3.343777e+00) (1.887626e-01 -8.925390e-03 4.325893e-02) (0.000000e+00 0.000000e+00 0.000000e+00)) ((5.542101e-01 6.475119e+00 -2.449260e-01) (9.257179e-03 1.623773e-01 -5.400965e-03) (0.000000e+00 0.000000e+00 0.000000e+00))
452           	((5.782871e+00 -5.896710e-01 -3.316207e+00) (1.885836e-01 -8.073035e-03 4.389181e-02) (0.000000e+00 0.000000e+00 0.000000e+00)) ((5.427087e-01 6.418598e+00 -2.462552e-01) (8.481586e-03 1.620071e-01 -5.159779e-03) (0.000000e+00 0.000000e+00 0.000000e+00))
453           	((5.767938e+00 -5.451395e-01 -3.310700e+00) (1.886161e-01 -7.131050e-03 4.456944e-02) (0.000000e+00 0.000000e+00 0.000000e+00)) ((5.034257e-01 6.388011e+00 -2.371838e-01) (7.620016e-03 1.618126e-01 -4.905341e-03) (0.000000e+00 0.000000e+00 0.000000e+00))
454           	((5.784216e+00 -4.757467e-01 -3.337637e+00) (1.888211e-01 -6.157921e-03 4.525147e-02) (0.000000e+00 0.000000e+00 0.000000e+00)) ((4.412098e-01 6.398311e+00 -2.192279e-01) (6.721555e-03 1.617717e-01 -4.654086e-03) (0.000000e+00 0.000000e+00 0.000000e+00))
455           	((5.824584e+00 -3.825249e-01 -3.391949e+00) (1.891947e-01 -5.186375e-03 4.590534e-02) (0.000000e+00 0.000000e+00 0.000000e+00)) ((3.573732e-01 6.441702e+00 -1.924367e-01) (5.821179e-03 1.618934e-01 -4.419173e-03) (0.000000e+00 0.000000e+00 0.000000e+00))
456           	((5.900111e+00 -2.822312e-01 -3.483992e+00) (1.896918e-01 -4.301136e-03 4.646692e-02) (0.000000e+00 0.000000e+00 0.000000e+00)) ((2.669016e-01 6.532392e+00 -1.622685e-01) (4.994127e-03 1.621571e-01 -4.222716e-03) (0.000000e+00 0.000000e+00 0.000000e+00))
457           	((5.999279e+00 -1.798599e-01 -3.604374e+00) (1.903405e-01 -3.525613e-03 4.693358e-02) (0.000000e+00 0.000000e+00 0.000000e+00)) ((1.745720e-01 6.656979e+00 -1.302074e-01) (4.268747e-03 1.625903e-01 -4.064804e-03) (0.000000e+00 0.000000e+00 0.000000e+00))
458           	((6.133892e+00 -9.221758e-02 -3.761558e+00) (1.910499e-01 -2.939153e-03 4.727496e-02) (0.000000e+00 0.000000e+00 0.000000e+00)) ((9.559224e-02 6.829340e+00 -1.013072e-01) (3.719937e-03 1.631226e-01 -3.966480e-03) (0.000000e+00 0.000000e+00 0.000000e+00))
459           	((6.295154e+00 -2.476168e-02 -3.945019e+00) (1.917975e-01 -2.517250e-03 4.742665e-02) (0.000000e+00 0.000000e+00 0.000000e+00)) ((3.481809e-02 7.038099e+00 -7.736469e-02) (3.328904e-03 1.637539e-01 -3.913449e-03) (0.000000e+00 0.000000e+00 0.000000e+00))