# Forces      
# CofR        : (0.000000e+00 0.000000e+00 0.000000e+00)
# Time        forces(pressure viscous porous)	moments(pressure viscous porous)
350           	((4.619576e+01 -1.067697e+00 1.313293e+01) (5.392885e+00 1.770894e-01 3.736906e-01) (0.000000e+00 0.000000e+00 0.000000e+00)) ((1.661590e+00 5.806418e+01 6.627599e-01) (-3.052005e-01 6.647373e+00 1.342379e-02) (0.000000e+00 0.000000e+00 0.000000e+00))
351           	((4.680109e+01 -1.358150e+00 1.282766e+01) (5.390126e+00 1.776849e-01 3.737610e-01) (0.000000e+00 0.000000e+00 0.000000e+00)) ((1.971093e+00 5.899554e+01 6.170464e-01) (-3.058058e-01 6.644718e+00 1.388212e-02) (0.000000e+00 0.000000e+00 0.000000e+00))
352           	((4.738924e+01 -1.590446e+00 1.256179e+01) (5.387317e+00 1.781354e-01 3.738848e-01) (0.000000e+00 0.000000e+00 0.000000e+00)) ((2.204405e+00 5.990380e+01 5.772471e-01) (-3.062155e-01 6.641889e+00 1.441780e-02) (0.000000e+00 0.000000e+00 0.000000e+00))
353           	((4.795989e+01 -1.767245e+00 1.235430e+01) (5.384576e+00 1.784201e-01 3.740861e-01) (0.000000e+00 0.000000e+00 0.000000e+00)) ((2.365490e+00 6.078371e+01 5.451119e-01) (-3.063758e-01 6.639034e+00 1.502718e-02) (0.000000e+00 0.000000e+00 0.000000e+00))
354           	((4.850093e+01 -1.880678e+00 1.220774e+01) (5.381852e+00 1.784595e-01 3.744521e-01) (0.000000e+00 0.000000e+00 0.000000e+00)) ((2.442723e+00 6.161685e+01 5.221022e-01) (-3.061714e-01 6.636024e+00 1.569891e-02) (0.000000e+00 0.000000e+00 0.000000e+00))
355           	((4.901337e+01 -1.928114e+00 1.211202e+01) (5.379321e+00 1.782519e-01 3.749721e-01) (0.000000e+00 0.000000e+00 0.000000e+00)) ((2.431368e+00 6.240733e+01 5.079919e-01) (-3.055824e-01 6.633047e+00 1.644390e-02) (0.000000e+00 0.000000e+00 0.000000e+00))
356           	((4.949299e+01 -1.920582e+00 1.206604e+01) (5.377040e+00 1.777640e-01 3.756895e-01) (0.000000e+00 0.000000e+00 0.000000e+00)) ((2.342976e+00 6.314893e+01 5.026012e-01) (-3.045580e-01 6.630179e+00 1.722750e-02) (0.000000e+00 0.000000e+00 0.000000e+00))
357           	((4.993363e+01 -1.871004e+00 1.207125e+01) (5.375045e+00 1.769521e-01 3.766405e-01) (0.000000e+00 0.000000e+00 0.000000e+00)) ((2.195903e+00 6.382804e+01 5.054584e-01) (-3.030107e-01 6.627452e+00 1.803701e-02) (0.000000e+00 0.000000e+00 0.000000e+00))
358           	((5.033691e+01 -1.790381e+00 1.210495e+01) (5.373387e+00 1.758545e-01 3.778362e-01) (0.000000e+00 0.000000e+00 0.000000e+00)) ((2.004198e+00 6.444935e+01 5.170611e-01) (-3.010001e-01 6.624923e+00 1.884232e-02) (0.000000e+00 0.000000e+00 0.000000e+00))
359           	((5.069937e+01 -1.691688e+00 1.214164e+01) (5.372122e+00 1.744511e-01 3.792731e-01) (0.000000e+00 0.000000e+00 0.000000e+00)) ((1.786011e+00 6.501427e+01 5.345475e-01) (-2.985007e-01 6.622671e+00 1.959883e-02) (0.000000e+00 0.000000e+00 0.000000e+00))
360           	((5.101181e+01 -1.595080e+00 1.217794e+01) (5.371330e+00 1.728141e-01 3.809606e-01) (0.000000e+00 0.000000e+00 0.000000e+00)) ((1.568379e+00 6.550783e+01 5.549040e-01) (-2.956041e-01 6.620825e+00 2.031874e-02) (0.000000e+00 0.000000e+00 0.000000e+00))
361           	((5.126068e+01 -1.511895e+00 1.222157e+01) (5.371078e+00 1.709580e-01 3.828229e-01) (0.000000e+00 0.000000e+00 0.000000e+00)) ((1.365159e+00 6.590510e+01 5.742518e-01) (-2.923429e-01 6.619535e+00 2.095008e-02) (0.000000e+00 0.000000e+00 0.000000e+00))
362           	((5.145138e+01 -1.435402e+00 1.225178e+01) (5.371435e+00 1.689844e-01 3.849287e-01) (0.000000e+00 0.000000e+00 0.000000e+00)) ((1.165956e+00 6.621711e+01 5.899005e-01) (-2.888698e-01 6.618914e+00 2.148925e-02) (0.000000e+00 0.000000e+00 0.000000e+00))
363           	((5.158793e+01 -1.370281e+00 1.227079e+01) (5.372416e+00 1.668369e-01 3.871116e-01) (0.000000e+00 0.000000e+00 0.000000e+00)) ((9.785928e-01 6.644790e+01 5.969073e-01) (-2.851359e-01 6.619114e+00 2.187695e-02) (0.000000e+00 0.000000e+00 0.000000e+00))
364           	((5.166270e+01 -1.324477e+00 1.228266e+01) (5.374100e+00 1.646824e-01 3.894757e-01) (0.000000e+00 0.000000e+00 0.000000e+00)) ((8.122728e-01 6.658517e+01 5.940494e-01) (-2.813683e-01 6.620247e+00 2.214254e-02) (0.000000e+00 0.000000e+00 0.000000e+00))
365           	((5.167257e+01 -1.313313e+00 1.229116e+01) (5.376403e+00 1.624140e-01 3.919177e-01) (0.000000e+00 0.000000e+00 0.000000e+00)) ((6.890372e-01 6.662721e+01 5.770748e-01) (-2.774316e-01 6.622289e+00 2.222052e-02) (0.000000e+00 0.000000e+00 0.000000e+00))
366           	((5.162712e+01 -1.329539e+00 1.229230e+01) (5.379386e+00 1.601368e-01 3.944050e-01) (0.000000e+00 0.000000e+00 0.000000e+00)) ((6.006792e-01 6.658957e+01 5.453195e-01) (-2.734876e-01 6.625345e+00 2.214210e-02) (0.000000e+00 0.000000e+00 0.000000e+00))
367           	((5.152279e+01 -1.378128e+00 1.229452e+01) (5.382938e+00 1.578636e-01 3.967812e-01) (0.000000e+00 0.000000e+00 0.000000e+00)) ((5.581270e-01 6.646416e+01 4.990437e-01) (-2.695549e-01 6.629322e+00 2.189943e-02) (0.000000e+00 0.000000e+00 0.000000e+00))
368           	((5.134823e+01 -1.473167e+00 1.230321e+01) (5.387094e+00 1.556650e-01 3.989680e-01) (0.000000e+00 0.000000e+00 0.000000e+00)) ((5.830992e-01 6.623480e+01 4.406505e-01) (-2.657503e-01 6.634277e+00 2.151800e-02) (0.000000e+00 0.000000e+00 0.000000e+00))
369           	((5.110390e+01 -1.595122e+00 1.230372e+01) (5.391639e+00 1.534731e-01 4.010396e-01) (0.000000e+00 0.000000e+00 0.000000e+00)) ((6.527462e-01 6.590516e+01 3.722589e-01) (-2.619847e-01 6.639930e+00 2.100064e-02) (0.000000e+00 0.000000e+00 0.000000e+00))
370           	((5.079606e+01 -1.750262e+00 1.231393e+01) (5.396553e+00 1.512247e-01 4.029480e-01) (0.000000e+00 0.000000e+00 0.000000e+00)) ((7.803022e-01 6.547493e+01 2.937860e-01) (-2.581905e-01 6.646248e+00 2.033935e-02) (0.000000e+00 0.000000e+00 0.000000e+00))
371           	((5.042214e+01 -1.949188e+00 1.231756e+01) (5.401638e+00 1.489775e-01 4.047576e-01) (0.000000e+00 0.000000e+00 0.000000e+00)) ((9.815368e-01 6.494288e+01 2.054710e-01) (-2.544806e-01 6.652969e+00 1.955349e-02) (0.000000e+00 0.000000e+00 0.000000e+00))
372           	((4.999258e+01 -2.194486e+00 1.233514e+01) (5.406908e+00 1.467468e-01 4.064431e-01) (0.000000e+00 0.000000e+00 0.000000e+00)) ((1.261754e+00 6.431461e+01 1.118141e-01) (-2.508262e-01 6.660094e+00 1.870660e-02) (0.000000e+00 0.000000e+00 0.000000e+00))
373           	((4.950862e+01 -2.460473e+00 1.236387e+01) (5.412151e+00 1.444427e-01 4.080424e-01) (0.000000e+00 0.000000e+00 0.000000e+00)) ((1.589340e+00 6.359146e+01 2.047040e-02) (-2.471023e-01 6.667332e+00 1.778664e-02) (0.000000e+00 0.000000e+00 0.000000e+00))
374           	((4.897972e+01 -2.748438e+00 1.240400e+01) (5.417294e+00 1.421053e-01 4.095094e-01) (0.000000e+00 0.000000e+00 0.000000e+00)) ((1.966749e+00 6.279522e+01 -6.907711e-02) (-2.433551e-01 6.674554e+00 1.684324e-02) (0.000000e+00 0.000000e+00 0.000000e+00))
375           	((4.842167e+01 -3.057717e+00 1.245236e+01) (5.422229e+00 1.397771e-01 4.109608e-01) (0.000000e+00 0.000000e+00 0.000000e+00)) ((2.393092e+00 6.194696e+01 -1.535451e-01) (-2.396225e-01 6.681579e+00 1.586629e-02) (0.000000e+00 0.000000e+00 0.000000e+00))
376           	((4.785102e+01 -3.386251e+00 1.250333e+01) (5.426994e+00 1.375806e-01 4.122690e-01) (0.000000e+00 0.000000e+00 0.000000e+00)) ((2.864304e+00 6.107262e+01 -2.298580e-01) (-2.360311e-01 6.688448e+00 1.491945e-02) (0.000000e+00 0.000000e+00 0.000000e+00))
377           	((4.727850e+01 -3.715294e+00 1.256546e+01) (5.431364e+00 1.354730e-01 4.134313e-01) (0.000000e+00 0.000000e+00 0.000000e+00)) ((3.352162e+00 6.019445e+01 -2.963668e-01) (-2.325276e-01 6.694858e+00 1.395412e-02) (0.000000e+00 0.000000e+00 0.000000e+00))
378           	((4.673565e+01 -4.041210e+00 1.264782e+01) (5.435288e+00 1.334869e-01 4.144228e-01) (0.000000e+00 0.000000e+00 0.000000e+00)) ((3.849441e+00 5.935785e+01 -3.540739e-01) (-2.291598e-01 6.700716e+00 1.301409e-02) (0.000000e+00 0.000000e+00 0.000000e+00))
379           	((4.623514e+01 -4.342263e+00 1.275253e+01) (5.438705e+00 1.315439e-01 4.153156e-01) (0.000000e+00 0.000000e+00 0.000000e+00)) ((4.324048e+00 5.858225e+01 -3.994306e-01) (-2.258375e-01 6.705906e+00 1.206071e-02) (0.000000e+00 0.000000e+00 0.000000e+00))
380           	((4.578507e+01 -4.590398e+00 1.288606e+01) (5.441636e+00 1.297146e-01 4.160651e-01) (0.000000e+00 0.000000e+00 0.000000e+00)) ((4.734362e+00 5.788293e+01 -4.257293e-01) (-2.226698e-01 6.710416e+00 1.111235e-02) (0.000000e+00 0.000000e+00 0.000000e+00))
381           	((4.538731e+01 -4.774715e+00 1.303462e+01) (5.444083e+00 1.280837e-01 4.166226e-01) (0.000000e+00 0.000000e+00 0.000000e+00)) ((5.064139e+00 5.726219e+01 -4.369638e-01) (-2.197755e-01 6.714245e+00 1.015535e-02) (0.000000e+00 0.000000e+00 0.000000e+00))
382           	((4.504075e+01 -4.873689e+00 1.320097e+01) (5.446142e+00 1.265817e-01 4.171129e-01) (0.000000e+00 0.000000e+00 0.000000e+00)) ((5.282216e+00 5.672280e+01 -4.331548e-01) (-2.170992e-01 6.717507e+00 9.192412e-03) (0.000000e+00 0.000000e+00 0.000000e+00))
383           	((4.475029e+01 -4.895693e+00 1.338685e+01) (5.447800e+00 1.252823e-01 4.174643e-01) (0.000000e+00 0.000000e+00 0.000000e+00)) ((5.398992e+00 5.627069e+01 -4.153732e-01) (-2.147474e-01 6.720201e+00 8.258554e-03) (0.000000e+00 0.000000e+00 0.000000e+00))
384           	((4.452802e+01 -4.843819e+00 1.358431e+01) (5.449205e+00 1.241477e-01 4.176924e-01) (0.000000e+00 0.000000e+00 0.000000e+00)) ((5.418154e+00 5.592535e+01 -3.817377e-01) (-2.126752e-01 6.722525e+00 7.328771e-03) (0.000000e+00 0.000000e+00 0.000000e+00))
385           	((4.438447e+01 -4.721194e+00 1.378037e+01) (5.450292e+00 1.231769e-01 4.177882e-01) (0.000000e+00 0.000000e+00 0.000000e+00)) ((5.341498e+00 5.570722e+01 -3.344052e-01) (-2.108878e-01 6.724442e+00 6.444580e-03) (0.000000e+00 0.000000e+00 0.000000e+00))
386           	((4.431311e+01 -4.550206e+00 1.397014e+01) (5.451240e+00 1.224501e-01 4.178303e-01) (0.000000e+00 0.000000e+00 0.000000e+00)) ((5.197390e+00 5.560409e+01 -2.784360e-01) (-2.094702e-01 6.726204e+00 5.616799e-03) (0.000000e+00 0.000000e+00 0.000000e+00))
387           	((4.430538e+01 -4.324937e+00 1.416243e+01) (5.452085e+00 1.219321e-01 4.177997e-01) (0.000000e+00 0.000000e+00 0.000000e+00)) ((4.974474e+00 5.560263e+01 -2.124746e-01) (-2.083795e-01 6.727904e+00 4.840476e-03) (0.000000e+00 0.000000e+00 0.000000e+00))
388           	((4.436827e+01 -4.067005e+00 1.436531e+01) (5.452804e+00 1.216364e-01 4.177085e-01) (0.000000e+00 0.000000e+00 0.000000e+00)) ((4.700881e+00 5.570936e+01 -1.433547e-01) (-2.076155e-01 6.729520e+00 4.138464e-03) (0.000000e+00 0.000000e+00 0.000000e+00))
389           	((4.450202e+01 -3.799126e+00 1.458029e+01) (5.453409e+00 1.215871e-01 4.175674e-01) (0.000000e+00 0.000000e+00 0.000000e+00)) ((4.400735e+00 5.591856e+01 -7.747790e-02) (-2.072117e-01 6.731086e+00 3.510002e-03) (0.000000e+00 0.000000e+00 0.000000e+00))
390           	((4.468062e+01 -3.520887e+00 1.480412e+01) (5.453906e+00 1.218348e-01 4.174108e-01) (0.000000e+00 0.000000e+00 0.000000e+00)) ((4.071176e+00 5.619158e+01 -1.780947e-02) (-2.072422e-01 6.732620e+00 2.979998e-03) (0.000000e+00 0.000000e+00 0.000000e+00))
391           	((4.489182e+01 -3.267939e+00 1.503021e+01) (5.454208e+00 1.223333e-01 4.171726e-01) (0.000000e+00 0.000000e+00 0.000000e+00)) ((3.754159e+00 5.651172e+01 3.105980e-02) (-2.076555e-01 6.734010e+00 2.532106e-03) (0.000000e+00 0.000000e+00 0.000000e+00))
392           	((4.513191e+01 -3.055093e+00 1.524538e+01) (5.454296e+00 1.230755e-01 4.168721e-01) (0.000000e+00 0.000000e+00 0.000000e+00)) ((3.466575e+00 5.687450e+01 6.551727e-02) (-2.084695e-01 6.735224e+00 2.142241e-03) (0.000000e+00 0.000000e+00 0.000000e+00))
393           	((4.538986e+01 -2.894565e+00 1.545267e+01) (5.454110e+00 1.240226e-01 4.165844e-01) (0.000000e+00 0.000000e+00 0.000000e+00)) ((3.226342e+00 5.726145e+01 8.402281e-02) (-2.096577e-01 6.736135e+00 1.788290e-03) (0.000000e+00 0.000000e+00 0.000000e+00))
394           	((4.564567e+01 -2.785741e+00 1.564974e+01) (5.453607e+00 1.250700e-01 4.162651e-01) (0.000000e+00 0.000000e+00 0.000000e+00)) ((3.036428e+00 5.764169e+01 8.540968e-02) (-2.110968e-01 6.736695e+00 1.441387e-03) (0.000000e+00 0.000000e+00 0.000000e+00))
395           	((4.589016e+01 -2.722367e+00 1.583249e+01) (5.452888e+00 1.261573e-01 4.158491e-01) (0.000000e+00 0.000000e+00 0.000000e+00)) ((2.890951e+00 5.800125e+01 6.781224e-02) (-2.127256e-01 6.737041e+00 1.051272e-03) (0.000000e+00 0.000000e+00 0.000000e+00))
396           	((4.612047e+01 -2.682414e+00 1.598600e+01) (5.451930e+00 1.272081e-01 4.152644e-01) (0.000000e+00 0.000000e+00 0.000000e+00)) ((2.765322e+00 5.833853e+01 3.569025e-02) (-2.144586e-01 6.737161e+00 6.070519e-04) (0.000000e+00 0.000000e+00 0.000000e+00))
397           	((4.632603e+01 -2.648226e+00 1.609890e+01) (5.450748e+00 1.281790e-01 4.144425e-01) (0.000000e+00 0.000000e+00 0.000000e+00)) ((2.640511e+00 5.864019e+01 -1.081492e-02) (-2.162321e-01 6.737062e+00 9.428873e-05) (0.000000e+00 0.000000e+00 0.000000e+00))
398           	((4.649342e+01 -2.606920e+00 1.616773e+01) (5.449444e+00 1.290306e-01 4.132944e-01) (0.000000e+00 0.000000e+00 0.000000e+00)) ((2.501455e+00 5.888956e+01 -6.503222e-02) (-2.180217e-01 6.736879e+00 -4.937018e-04) (0.000000e+00 0.000000e+00 0.000000e+00))
399           	((4.661206e+01 -2.558230e+00 1.618859e+01) (5.448024e+00 1.297894e-01 4.118276e-01) (0.000000e+00 0.000000e+00 0.000000e+00)) ((2.350422e+00 5.907259e+01 -1.261118e-01) (-2.198381e-01 6.736589e+00 -1.145719e-03) (0.000000e+00 0.000000e+00 0.000000e+00))
400           	((4.666455e+01 -2.487638e+00 1.618024e+01) (5.446520e+00 1.303987e-01 4.100161e-01) (0.000000e+00 0.000000e+00 0.000000e+00)) ((2.170838e+00 5.916376e+01 -1.885348e-01) (-2.215959e-01 6.736220e+00 -1.883248e-03) (0.000000e+00 0.000000e+00 0.000000e+00))
401           	((4.663134e+01 -2.377395e+00 1.614988e+01) (5.445086e+00 1.309106e-01 4.079540e-01) (0.000000e+00 0.000000e+00 0.000000e+00)) ((1.944362e+00 5.913201e+01 -2.433355e-01) (-2.233111e-01 6.735887e+00 -2.671853e-03) (0.000000e+00 0.000000e+00 0.000000e+00))
402           	((4.650951e+01 -2.215471e+00 1.609531e+01) (5.443679e+00 1.312754e-01 4.056440e-01) (0.000000e+00 0.000000e+00 0.000000e+00)) ((1.657322e+00 5.897359e+01 -2.869515e-01) (-2.248784e-01 6.735508e+00 -3.526755e-03) (0.000000e+00 0.000000e+00 0.000000e+00))
403           	((4.631023e+01 -1.999376e+00 1.602293e+01) (5.442406e+00 1.314326e-01 4.031567e-01) (0.000000e+00 0.000000e+00 0.000000e+00)) ((1.307783e+00 5.870449e+01 -3.143954e-01) (-2.261672e-01 6.735139e+00 -4.465387e-03) (0.000000e+00 0.000000e+00 0.000000e+00))
404           	((4.603066e+01 -1.728762e+00 1.593918e+01) (5.441281e+00 1.314962e-01 4.005981e-01) (0.000000e+00 0.000000e+00 0.000000e+00)) ((8.979959e-01 5.831616e+01 -3.191887e-01) (-2.272882e-01 6.734738e+00 -5.488436e-03) (0.000000e+00 0.000000e+00 0.000000e+00))
405           	((4.569397e+01 -1.412945e+00 1.583871e+01) (5.440263e+00 1.314149e-01 3.980513e-01) (0.000000e+00 0.000000e+00 0.000000e+00)) ((4.408825e-01 5.784481e+01 -3.001916e-01) (-2.281276e-01 6.734226e+00 -6.609701e-03) (0.000000e+00 0.000000e+00 0.000000e+00))
406           	((4.532090e+01 -1.061061e+00 1.571162e+01) (5.439505e+00 1.312194e-01 3.956193e-01) (0.000000e+00 0.000000e+00 0.000000e+00)) ((-5.110474e-02 5.731747e+01 -2.557054e-01) (-2.286734e-01 6.733815e+00 -7.801504e-03) (0.000000e+00 0.000000e+00 0.000000e+00))
407           	((4.495571e+01 -6.878678e-01 1.556194e+01) (5.438829e+00 1.308165e-01 3.934732e-01) (0.000000e+00 0.000000e+00 0.000000e+00)) ((-5.555942e-01 5.680346e+01 -1.887501e-01) (-2.287891e-01 6.733246e+00 -9.051091e-03) (0.000000e+00 0.000000e+00 0.000000e+00))
408           	((4.461727e+01 -3.036650e-01 1.538337e+01) (5.438490e+00 1.301771e-01 3.915227e-01) (0.000000e+00 0.000000e+00 0.000000e+00)) ((-1.057861e+00 5.632650e+01 -1.017083e-01) (-2.284128e-01 6.732914e+00 -1.034720e-02) (0.000000e+00 0.000000e+00 0.000000e+00))
409           	((4.434528e+01 6.600002e-02 1.519474e+01) (5.438170e+00 1.293407e-01 3.898377e-01) (0.000000e+00 0.000000e+00 0.000000e+00)) ((-1.528822e+00 5.594819e+01 1.986651e-03) (-2.275793e-01 6.732403e+00 -1.164119e-02) (0.000000e+00 0.000000e+00 0.000000e+00))
410           	((4.414097e+01 4.283141e-01 1.499282e+01) (5.438049e+00 1.283164e-01 3.884020e-01) (0.000000e+00 0.000000e+00 0.000000e+00)) ((-1.977910e+00 5.566976e+01 1.190879e-01) (-2.262827e-01 6.731971e+00 -1.293726e-02) (0.000000e+00 0.000000e+00 0.000000e+00))
411           	((4.402831e+01 7.658367e-01 1.479876e+01) (5.437759e+00 1.271680e-01 3.871790e-01) (0.000000e+00 0.000000e+00 0.000000e+00)) ((-2.385222e+00 5.552545e+01 2.434109e-01) (-2.246283e-01 6.731182e+00 -1.423112e-02) (0.000000e+00 0.000000e+00 0.000000e+00))
412           	((4.400301e+01 1.069631e+00 1.459258e+01) (5.437448e+00 1.259385e-01 3.861084e-01) (0.000000e+00 0.000000e+00 0.000000e+00)) ((-2.739718e+00 5.551255e+01 3.724326e-01) (-2.226699e-01 6.730266e+00 -1.549402e-02) (0.000000e+00 0.000000e+00 0.000000e+00))
413           	((4.407723e+01 1.329009e+00 1.440625e+01) (5.436793e+00 1.247060e-01 3.852398e-01) (0.000000e+00 0.000000e+00 0.000000e+00)) ((-3.033581e+00 5.565186e+01 5.008773e-01) (-2.205302e-01 6.728808e+00 -1.675150e-02) (0.000000e+00 0.000000e+00 0.000000e+00))
414           	((4.423065e+01 1.553453e+00 1.423831e+01) (5.435860e+00 1.235544e-01 3.844697e-01) (0.000000e+00 0.000000e+00 0.000000e+00)) ((-3.280743e+00 5.590931e+01 6.238314e-01) (-2.183548e-01 6.726985e+00 -1.795104e-02) (0.000000e+00 0.000000e+00 0.000000e+00))
415           	((4.446193e+01 1.763537e+00 1.406868e+01) (5.434479e+00 1.224801e-01 3.838477e-01) (0.000000e+00 0.000000e+00 0.000000e+00)) ((-3.503845e+00 5.628585e+01 7.389626e-01) (-2.161807e-01 6.724590e+00 -1.911847e-02) (0.000000e+00 0.000000e+00 0.000000e+00))
416           	((4.475443e+01 1.951236e+00 1.392135e+01) (5.432795e+00 1.215041e-01 3.833308e-01) (0.000000e+00 0.000000e+00 0.000000e+00)) ((-3.693246e+00 5.674873e+01 8.449722e-01) (-2.140448e-01 6.721858e+00 -2.022592e-02) (0.000000e+00 0.000000e+00 0.000000e+00))
417           	((4.509606e+01 2.116955e+00 1.382313e+01) (5.430721e+00 1.207149e-01 3.828276e-01) (0.000000e+00 0.000000e+00 0.000000e+00)) ((-3.851335e+00 5.727906e+01 9.300287e-01) (-2.120944e-01 6.718700e+00 -2.125761e-02) (0.000000e+00 0.000000e+00 0.000000e+00))
418           	((4.547732e+01 2.274878e+00 1.376538e+01) (5.428265e+00 1.200910e-01 3.822914e-01) (0.000000e+00 0.000000e+00 0.000000e+00)) ((-3.997218e+00 5.785867e+01 9.984728e-01) (-2.103092e-01 6.715124e+00 -2.217913e-02) (0.000000e+00 0.000000e+00 0.000000e+00))
419           	((4.590577e+01 2.412573e+00 1.377256e+01) (5.425393e+00 1.196591e-01 3.817625e-01) (0.000000e+00 0.000000e+00 0.000000e+00)) ((-4.114737e+00 5.849010e+01 1.049171e+00) (-2.087575e-01 6.711086e+00 -2.299371e-02) (0.000000e+00 0.000000e+00 0.000000e+00))
420           	((4.635905e+01 2.531663e+00 1.383143e+01) (5.422343e+00 1.194926e-01 3.812652e-01) (0.000000e+00 0.000000e+00 0.000000e+00)) ((-4.209814e+00 5.914073e+01 1.082794e+00) (-2.075609e-01 6.706910e+00 -2.363324e-02) (0.000000e+00 0.000000e+00 0.000000e+00))
421           	((4.682312e+01 2.617306e+00 1.393448e+01) (5.418980e+00 1.195384e-01 3.807772e-01) (0.000000e+00 0.000000e+00 0.000000e+00)) ((-4.267190e+00 5.979500e+01 1.099810e+00) (-2.066925e-01 6.702397e+00 -2.416322e-02) (0.000000e+00 0.000000e+00 0.000000e+00))
422           	((4.728680e+01 2.682091e+00 1.408102e+01) (5.415486e+00 1.196982e-01 3.802549e-01) (0.000000e+00 0.000000e+00 0.000000e+00)) ((-4.305048e+00 6.043345e+01 1.100367e+00) (-2.060312e-01 6.697791e+00 -2.455090e-02) (0.000000e+00 0.000000e+00 0.000000e+00))
423           	((4.774704e+01 2.722253e+00 1.426246e+01) (5.412001e+00 1.200760e-01 3.796256e-01) (0.000000e+00 0.000000e+00 0.000000e+00)) ((-4.321731e+00 6.105226e+01 1.085237e+00) (-2.057449e-01 6.693257e+00 -2.479333e-02) (0.000000e+00 0.000000e+00 0.000000e+00))
424           	((4.820348e+01 2.753127e+00 1.446807e+01) (5.408527e+00 1.205318e-01 3.789251e-01) (0.000000e+00 0.000000e+00 0.000000e+00)) ((-4.340708e+00 6.165163e+01 1.060526e+00) (-2.056523e-01 6.688772e+00 -2.494119e-02) (0.000000e+00 0.000000e+00 0.000000e+00))
425           	((4.864366e+01 2.764323e+00 1.469672e+01) (5.405185e+00 1.211476e-01 3.781172e-01) (0.000000e+00 0.000000e+00 0.000000e+00)) ((-4.348043e+00 6.221388e+01 1.027304e+00) (-2.058832e-01 6.684487e+00 -2.498061e-02) (0.000000e+00 0.000000e+00 0.000000e+00))
426           	((4.905841e+01 2.778567e+00 1.494112e+01) (5.401985e+00 1.217588e-01 3.772684e-01) (0.000000e+00 0.000000e+00 0.000000e+00)) ((-4.372547e+00 6.272960e+01 9.915629e-01) (-2.062252e-01 6.680385e+00 -2.496734e-02) (0.000000e+00 0.000000e+00 0.000000e+00))
427           	((4.944651e+01 2.785723e+00 1.519990e+01) (5.399070e+00 1.224453e-01 3.763350e-01) (0.000000e+00 0.000000e+00 0.000000e+00)) ((-4.400709e+00 6.319656e+01 9.555661e-01) (-2.067862e-01 6.676648e+00 -2.490665e-02) (0.000000e+00 0.000000e+00 0.000000e+00))
428           	((4.981040e+01 2.795801e+00 1.548829e+01) (5.396444e+00 1.231845e-01 3.753764e-01) (0.000000e+00 0.000000e+00 0.000000e+00)) ((-4.442091e+00 6.361642e+01 9.216517e-01) (-2.075437e-01 6.673248e+00 -2.481012e-02) (0.000000e+00 0.000000e+00 0.000000e+00))
429           	((5.013245e+01 2.799619e+00 1.579424e+01) (5.394212e+00 1.239151e-01 3.744081e-01) (0.000000e+00 0.000000e+00 0.000000e+00)) ((-4.482069e+00 6.396483e+01 8.901403e-01) (-2.083956e-01 6.670336e+00 -2.471415e-02) (0.000000e+00 0.000000e+00 0.000000e+00))
430           	((5.041833e+01 2.811917e+00 1.611788e+01) (5.392283e+00 1.246616e-01 3.735499e-01) (0.000000e+00 0.000000e+00 0.000000e+00)) ((-4.537357e+00 6.425269e+01 8.624188e-01) (-2.093881e-01 6.667750e+00 -2.459699e-02) (0.000000e+00 0.000000e+00 0.000000e+00))
431           	((5.066330e+01 2.826638e+00 1.643093e+01) (5.390840e+00 1.254179e-01 3.728261e-01) (0.000000e+00 0.000000e+00 0.000000e+00)) ((-4.596534e+00 6.447605e+01 8.370513e-01) (-2.104708e-01 6.665739e+00 -2.447913e-02) (0.000000e+00 0.000000e+00 0.000000e+00))
432           	((5.087500e+01 2.839443e+00 1.673823e+01) (5.389760e+00 1.261278e-01 3.724120e-01) (0.000000e+00 0.000000e+00 0.000000e+00)) ((-4.651577e+00 6.465025e+01 8.162242e-01) (-2.115482e-01 6.664100e+00 -2.435210e-02) (0.000000e+00 0.000000e+00 0.000000e+00))
433           	((5.102941e+01 2.839993e+00 1.701284e+01) (5.389143e+00 1.267519e-01 3.723984e-01) (0.000000e+00 0.000000e+00 0.000000e+00)) ((-4.686240e+00 6.474572e+01 8.000166e-01) (-2.125520e-01 6.662945e+00 -2.423988e-02) (0.000000e+00 0.000000e+00 0.000000e+00))
434           	((5.113807e+01 2.833636e+00 1.725919e+01) (5.388811e+00 1.272383e-01 3.727417e-01) (0.000000e+00 0.000000e+00 0.000000e+00)) ((-4.707662e+00 6.477906e+01 7.864148e-01) (-2.133971e-01 6.662011e+00 -2.415230e-02) (0.000000e+00 0.000000e+00 0.000000e+00))
435           	((5.119529e+01 2.816322e+00 1.747507e+01) (5.388719e+00 1.276134e-01 3.734900e-01) (0.000000e+00 0.000000e+00 0.000000e+00)) ((-4.709164e+00 6.474172e+01 7.733309e-01) (-2.140991e-01 6.661228e+00 -2.408444e-02) (0.000000e+00 0.000000e+00 0.000000e+00))
436           	((5.120145e+01 2.792074e+00 1.766139e+01) (5.388772e+00 1.278344e-01 3.746135e-01) (0.000000e+00 0.000000e+00 0.000000e+00)) ((-4.696017e+00 6.463872e+01 7.611091e-01) (-2.146246e-01 6.660472e+00 -2.405732e-02) (0.000000e+00 0.000000e+00 0.000000e+00))
437           	((5.115690e+01 2.769731e+00 1.780435e+01) (5.388933e+00 1.278823e-01 3.760823e-01) (0.000000e+00 0.000000e+00 0.000000e+00)) ((-4.677459e+00 6.447232e+01 7.535157e-01) (-2.149135e-01 6.659670e+00 -2.408736e-02) (0.000000e+00 0.000000e+00 0.000000e+00))
438           	((5.107799e+01 2.757724e+00 1.790252e+01) (5.389049e+00 1.277197e-01 3.778555e-01) (0.000000e+00 0.000000e+00 0.000000e+00)) ((-4.661657e+00 6.426542e+01 7.504202e-01) (-2.149334e-01 6.658644e+00 -2.417389e-02) (0.000000e+00 0.000000e+00 0.000000e+00))
439           	((5.096549e+01 2.753098e+00 1.795359e+01) (5.389212e+00 1.273189e-01 3.798794e-01) (0.000000e+00 0.000000e+00 0.000000e+00)) ((-4.644572e+00 6.401910e+01 7.541991e-01) (-2.146396e-01 6.657525e+00 -2.432585e-02) (0.000000e+00 0.000000e+00 0.000000e+00))
440           	((5.082917e+01 2.753811e+00 1.795981e+01) (5.389336e+00 1.266835e-01 3.821401e-01) (0.000000e+00 0.000000e+00 0.000000e+00)) ((-4.621120e+00 6.374795e+01 7.626410e-01) (-2.140235e-01 6.656212e+00 -2.452326e-02) (0.000000e+00 0.000000e+00 0.000000e+00))
441           	((5.067204e+01 2.751941e+00 1.792412e+01) (5.389398e+00 1.257610e-01 3.845583e-01) (0.000000e+00 0.000000e+00 0.000000e+00)) ((-4.581782e+00 6.345790e+01 7.784097e-01) (-2.130077e-01 6.654708e+00 -2.479846e-02) (0.000000e+00 0.000000e+00 0.000000e+00))
442           	((5.050457e+01 2.752053e+00 1.785920e+01) (5.389435e+00 1.245503e-01 3.870715e-01) (0.000000e+00 0.000000e+00 0.000000e+00)) ((-4.534267e+00 6.316319e+01 8.029834e-01) (-2.116084e-01 6.653101e+00 -2.513205e-02) (0.000000e+00 0.000000e+00 0.000000e+00))
443           	((5.034493e+01 2.744587e+00 1.777481e+01) (5.389505e+00 1.231038e-01 3.896493e-01) (0.000000e+00 0.000000e+00 0.000000e+00)) ((-4.465997e+00 6.288762e+01 8.343945e-01) (-2.098699e-01 6.651515e+00 -2.553417e-02) (0.000000e+00 0.000000e+00 0.000000e+00))
444           	((5.020818e+01 2.721485e+00 1.767948e+01) (5.389734e+00 1.213781e-01 3.922358e-01) (0.000000e+00 0.000000e+00 0.000000e+00)) ((-4.365033e+00 6.265152e+01 8.724203e-01) (-2.077523e-01 6.650152e+00 -2.597915e-02) (0.000000e+00 0.000000e+00 0.000000e+00))
445           	((5.010351e+01 2.688783e+00 1.757874e+01) (5.390079e+00 1.194182e-01 3.948897e-01) (0.000000e+00 0.000000e+00 0.000000e+00)) ((-4.239394e+00 6.246547e+01 9.172921e-01) (-2.053223e-01 6.649007e+00 -2.647230e-02) (0.000000e+00 0.000000e+00 0.000000e+00))
446           	((5.003140e+01 2.635129e+00 1.748501e+01) (5.390664e+00 1.173040e-01 3.975167e-01) (0.000000e+00 0.000000e+00 0.000000e+00)) ((-4.076168e+00 6.232771e+01 9.654741e-01) (-2.026715e-01 6.648239e+00 -2.696067e-02) (0.000000e+00 0.000000e+00 0.000000e+00))
447           	((5.000125e+01 2.559395e+00 1.740409e+01) (5.391563e+00 1.150348e-01 4.001314e-01) (0.000000e+00 0.000000e+00 0.000000e+00)) ((-3.877344e+00 6.225375e+01 1.016492e+00) (-1.998166e-01 6.647992e+00 -2.747495e-02) (0.000000e+00 0.000000e+00 0.000000e+00))
448           	((5.001267e+01 2.446315e+00 1.735712e+01) (5.392739e+00 1.126739e-01 4.027431e-01) (0.000000e+00 0.000000e+00 0.000000e+00)) ((-3.624445e+00 6.223704e+01 1.063518e+00) (-1.968585e-01 6.648239e+00 -2.800956e-02) (0.000000e+00 0.000000e+00 0.000000e+00))
449           	((5.007004e+01 2.296255e+00 1.734925e+01) (5.394155e+00 1.101965e-01 4.053184e-01) (0.000000e+00 0.000000e+00 0.000000e+00)) ((-3.323637e+00 6.228246e+01 1.106926e+00) (-1.937607e-01 6.648912e+00 -2.860110e-02) (0.000000e+00 0.000000e+00 0.000000e+00))
450           	((5.017492e+01 2.103713e+00 1.737858e+01) (5.395828e+00 1.076949e-01 4.078050e-01) (0.000000e+00 0.000000e+00 0.000000e+00)) ((-2.970344e+00 6.239209e+01 1.145146e+00) (-1.906601e-01 6.650055e+00 -2.921974e-02) (0.000000e+00 0.000000e+00 0.000000e+00))
451           	((5.032598e+01 1.878120e+00 1.745335e+01) (5.397734e+00 1.050648e-01 4.101383e-01) (0.000000e+00 0.000000e+00 0.000000e+00)) ((-2.580175e+00 6.256879e+01 1.173815e+00) (-1.874078e-01 6.651610e+00 -2.987379e-02) (0.000000e+00 0.000000e+00 0.000000e+00))
452           	((5.051249e+01 1.630944e+00 1.756027e+01) (5.399888e+00 1.024190e-01 4.123856e-01) (0.000000e+00 0.000000e+00 0.000000e+00)) ((-2.170043e+00 6.279910e+01 1.188662e+00) (-1.841902e-01 6.653631e+00 -3.056321e-02) (0.000000e+00 0.000000e+00 0.000000e+00))
453           	((5.073148e+01 1.374155e+00 1.769086e+01) (5.402208e+00 9.973449e-02 4.145196e-01) (0.000000e+00 0.000000e+00 0.000000e+00)) ((-1.753916e+00 6.307947e+01 1.190152e+00) (-1.809836e-01 6.656028e+00 -3.125839e-02) (0.000000e+00 0.000000e+00 0.000000e+00))
454           	((5.097700e+01 1.118872e+00 1.783337e+01) (5.404674e+00 9.710231e-02 4.165030e-01) (0.000000e+00 0.000000e+00 0.000000e+00)) ((-1.347315e+00 6.340443e+01 1.179558e+00) (-1.779117e-01 6.658750e+00 -3.193170e-02) (0.000000e+00 0.000000e+00 0.000000e+00))
455           	((5.122727e+01 8.864915e-01 1.799838e+01) (5.407277e+00 9.451808e-02 4.182964e-01) (0.000000e+00 0.000000e+00 0.000000e+00)) ((-9.789601e-01 6.374616e+01 1.157967e+00) (-1.749524e-01 6.661777e+00 -3.255596e-02) (0.000000e+00 0.000000e+00 0.000000e+00))
456           	((5.147079e+01 6.805805e-01 1.816502e+01) (5.409924e+00 9.204786e-02 4.199072e-01) (0.000000e+00 0.000000e+00 0.000000e+00)) ((-6.539926e-01 6.408996e+01 1.127646e+00) (-1.721860e-01 6.664968e+00 -3.310910e-02) (0.000000e+00 0.000000e+00 0.000000e+00))
457           	((5.169061e+01 5.196741e-01 1.832937e+01) (5.412623e+00 8.966823e-02 4.212455e-01) (0.000000e+00 0.000000e+00 0.000000e+00)) ((-3.938388e-01 6.441412e+01 1.093333e+00) (-1.695638e-01 6.668331e+00 -3.358716e-02) (0.000000e+00 0.000000e+00 0.000000e+00))
458           	((5.187834e+01 3.889529e-01 1.847094e+01) (5.415452e+00 8.756178e-02 4.224536e-01) (0.000000e+00 0.000000e+00 0.000000e+00)) ((-1.801566e-01 6.470726e+01 1.054547e+00) (-1.672970e-01 6.671934e+00 -3.393182e-02) (0.000000e+00 0.000000e+00 0.000000e+00))
459           	((5.202770e+01 3.173490e-01 1.860595e+01) (5.418431e+00 8.558342e-02 4.235008e-01) (0.000000e+00 0.000000e+00 0.000000e+00)) ((-5.013293e-02 6.495427e+01 1.017544e+00) (-1.652186e-01 6.675789e+00 -3.417338e-02) (0.000000e+00 0.000000e+00 0.000000e+00))
460           	((5.212616e+01 2.908956e-01 1.871565e+01) (5.421569e+00 8.409087e-02 4.244664e-01) (0.000000e+00 0.000000e+00 0.000000e+00)) ((1.099652e-02 6.513716e+01 9.828437e-01) (-1.637572e-01 6.679861e+00 -3.424012e-02) (0.000000e+00 0.000000e+00 0.000000e+00))