# Forces      
# CofR        : (0.000000e+00 0.000000e+00 0.000000e+00)
# Time        forces(pressure viscous porous)	moments(pressure viscous porous)
350           	((1.413028e+02 -8.855116e+00 -6.269526e+00) (7.200339e+00 -1.653238e-01 -6.361672e-01) (0.000000e+00 0.000000e+00 0.000000e+00)) ((9.619882e+00 1.896677e+02 3.603337e+00) (7.281804e-02 7.418814e+00 -4.097592e-02) (0.000000e+00 0.000000e+00 0.000000e+00))
351           	((1.412571e+02 -9.075371e+00 -6.282883e+00) (7.209269e+00 -1.699278e-01 -6.364815e-01) (0.000000e+00 0.000000e+00 0.000000e+00)) ((9.862015e+00 1.896438e+02 3.686862e+00) (7.647515e-02 7.425489e+00 -4.033935e-02) (0.000000e+00 0.000000e+00 0.000000e+00))
352           	((1.412128e+02 -9.369855e+00 -6.323008e+00) (7.218175e+00 -1.746917e-01 -6.366449e-01) (0.000000e+00 0.000000e+00 0.000000e+00)) ((1.016611e+01 1.895985e+02 3.796415e+00) (8.038240e-02 7.432209e+00 -3.965073e-02) (0.000000e+00 0.000000e+00 0.000000e+00))
353           	((1.411549e+02 -9.760981e+00 -6.403648e+00) (7.226910e+00 -1.796187e-01 -6.365916e-01) (0.000000e+00 0.000000e+00 0.000000e+00)) ((1.055270e+01 1.895111e+02 3.933398e+00) (8.453296e-02 7.438874e+00 -3.886858e-02) (0.000000e+00 0.000000e+00 0.000000e+00))
354           	((1.410440e+02 -1.024552e+01 -6.548670e+00) (7.235577e+00 -1.846940e-01 -6.364124e-01) (0.000000e+00 0.000000e+00 0.000000e+00)) ((1.101886e+01 1.893396e+02 4.095181e+00) (8.890699e-02 7.445576e+00 -3.797449e-02) (0.000000e+00 0.000000e+00 0.000000e+00))
355           	((1.408419e+02 -1.082858e+01 -6.776708e+00) (7.244189e+00 -1.897810e-01 -6.360958e-01) (0.000000e+00 0.000000e+00 0.000000e+00)) ((1.157021e+01 1.890362e+02 4.280645e+00) (9.336927e-02 7.452332e+00 -3.699773e-02) (0.000000e+00 0.000000e+00 0.000000e+00))
356           	((1.405565e+02 -1.147196e+01 -7.073837e+00) (7.252767e+00 -1.948600e-01 -6.355915e-01) (0.000000e+00 0.000000e+00 0.000000e+00)) ((1.217583e+01 1.886247e+02 4.479350e+00) (9.787888e-02 7.459150e+00 -3.590616e-02) (0.000000e+00 0.000000e+00 0.000000e+00))
357           	((1.401934e+02 -1.214624e+01 -7.437206e+00) (7.261304e+00 -1.998783e-01 -6.348888e-01) (0.000000e+00 0.000000e+00 0.000000e+00)) ((1.281089e+01 1.881187e+02 4.684178e+00) (1.023551e-01 7.466010e+00 -3.474038e-02) (0.000000e+00 0.000000e+00 0.000000e+00))
358           	((1.397645e+02 -1.282001e+01 -7.841474e+00) (7.269697e+00 -2.047868e-01 -6.339795e-01) (0.000000e+00 0.000000e+00 0.000000e+00)) ((1.344896e+01 1.875426e+02 4.887265e+00) (1.067379e-01 7.472816e+00 -3.349019e-02) (0.000000e+00 0.000000e+00 0.000000e+00))
359           	((1.393030e+02 -1.346571e+01 -8.251169e+00) (7.277743e+00 -2.095048e-01 -6.328268e-01) (0.000000e+00 0.000000e+00 0.000000e+00)) ((1.406461e+01 1.869417e+02 5.083792e+00) (1.109436e-01 7.479406e+00 -3.222198e-02) (0.000000e+00 0.000000e+00 0.000000e+00))
360           	((1.388264e+02 -1.406428e+01 -8.663100e+00) (7.285649e+00 -2.140015e-01 -6.313564e-01) (0.000000e+00 0.000000e+00 0.000000e+00)) ((1.464229e+01 1.863355e+02 5.271378e+00) (1.149161e-01 7.485947e+00 -3.093351e-02) (0.000000e+00 0.000000e+00 0.000000e+00))
361           	((1.383894e+02 -1.458152e+01 -9.017782e+00) (7.293381e+00 -2.182447e-01 -6.295689e-01) (0.000000e+00 0.000000e+00 0.000000e+00)) ((1.515080e+01 1.857868e+02 5.441485e+00) (1.186079e-01 7.492376e+00 -2.966271e-02) (0.000000e+00 0.000000e+00 0.000000e+00))
362           	((1.380405e+02 -1.498493e+01 -9.262195e+00) (7.301012e+00 -2.222966e-01 -6.275552e-01) (0.000000e+00 0.000000e+00 0.000000e+00)) ((1.556212e+01 1.853509e+02 5.585337e+00) (1.220785e-01 7.498730e+00 -2.838253e-02) (0.000000e+00 0.000000e+00 0.000000e+00))
363           	((1.378095e+02 -1.526364e+01 -9.367870e+00) (7.308408e+00 -2.261632e-01 -6.252332e-01) (0.000000e+00 0.000000e+00 0.000000e+00)) ((1.586483e+01 1.850564e+02 5.701582e+00) (1.253126e-01 7.504898e+00 -2.713586e-02) (0.000000e+00 0.000000e+00 0.000000e+00))
364           	((1.377291e+02 -1.539696e+01 -9.308540e+00) (7.315745e+00 -2.299315e-01 -6.227111e-01) (0.000000e+00 0.000000e+00 0.000000e+00)) ((1.603953e+01 1.849396e+02 5.786893e+00) (1.283934e-01 7.511014e+00 -2.588101e-02) (0.000000e+00 0.000000e+00 0.000000e+00))
365           	((1.378041e+02 -1.542080e+01 -9.115117e+00) (7.322891e+00 -2.335479e-01 -6.199897e-01) (0.000000e+00 0.000000e+00 0.000000e+00)) ((1.611682e+01 1.849844e+02 5.849875e+00) (1.312718e-01 7.516956e+00 -2.466417e-02) (0.000000e+00 0.000000e+00 0.000000e+00))
366           	((1.380192e+02 -1.535408e+01 -8.809197e+00) (7.329925e+00 -2.371364e-01 -6.171086e-01) (0.000000e+00 0.000000e+00 0.000000e+00)) ((1.611099e+01 1.851674e+02 5.898531e+00) (1.340766e-01 7.522749e+00 -2.343236e-02) (0.000000e+00 0.000000e+00 0.000000e+00))
367           	((1.383786e+02 -1.525147e+01 -8.360236e+00) (7.336700e+00 -2.406495e-01 -6.141012e-01) (0.000000e+00 0.000000e+00 0.000000e+00)) ((1.606965e+01 1.855052e+02 5.942285e+00) (1.367434e-01 7.528299e+00 -2.223850e-02) (0.000000e+00 0.000000e+00 0.000000e+00))
368           	((1.388505e+02 -1.514201e+01 -7.802680e+00) (7.343152e+00 -2.440967e-01 -6.110052e-01) (0.000000e+00 0.000000e+00 0.000000e+00)) ((1.601837e+01 1.859666e+02 5.988179e+00) (1.393069e-01 7.533503e+00 -2.104694e-02) (0.000000e+00 0.000000e+00 0.000000e+00))
369           	((1.393942e+02 -1.506293e+01 -7.226528e+00) (7.349202e+00 -2.473438e-01 -6.078125e-01) (0.000000e+00 0.000000e+00 0.000000e+00)) ((1.598797e+01 1.864932e+02 6.039262e+00) (1.416250e-01 7.538354e+00 -1.991991e-02) (0.000000e+00 0.000000e+00 0.000000e+00))
370           	((1.399880e+02 -1.505685e+01 -6.650715e+00) (7.354805e+00 -2.504517e-01 -6.046027e-01) (0.000000e+00 0.000000e+00 0.000000e+00)) ((1.601577e+01 1.870706e+02 6.100636e+00) (1.437953e-01 7.542774e+00 -1.883423e-02) (0.000000e+00 0.000000e+00 0.000000e+00))
371           	((1.406154e+02 -1.510749e+01 -6.072011e+00) (7.359724e+00 -2.532082e-01 -6.013762e-01) (0.000000e+00 0.000000e+00 0.000000e+00)) ((1.608541e+01 1.877015e+02 6.163354e+00) (1.456033e-01 7.546573e+00 -1.784543e-02) (0.000000e+00 0.000000e+00 0.000000e+00))
372           	((1.412176e+02 -1.522375e+01 -5.551209e+00) (7.364024e+00 -2.557232e-01 -5.983051e-01) (0.000000e+00 0.000000e+00 0.000000e+00)) ((1.620551e+01 1.883289e+02 6.230178e+00) (1.472403e-01 7.549761e+00 -1.688185e-02) (0.000000e+00 0.000000e+00 0.000000e+00))
373           	((1.417802e+02 -1.540005e+01 -5.113834e+00) (7.367554e+00 -2.578519e-01 -5.953105e-01) (0.000000e+00 0.000000e+00 0.000000e+00)) ((1.636781e+01 1.889362e+02 6.296546e+00) (1.485560e-01 7.552259e+00 -1.602344e-02) (0.000000e+00 0.000000e+00 0.000000e+00))
374           	((1.422665e+02 -1.558998e+01 -4.765176e+00) (7.370335e+00 -2.595695e-01 -5.925556e-01) (0.000000e+00 0.000000e+00 0.000000e+00)) ((1.652957e+01 1.894907e+02 6.350808e+00) (1.496053e-01 7.554049e+00 -1.522897e-02) (0.000000e+00 0.000000e+00 0.000000e+00))
375           	((1.426747e+02 -1.578294e+01 -4.504369e+00) (7.372387e+00 -2.606709e-01 -5.900853e-01) (0.000000e+00 0.000000e+00 0.000000e+00)) ((1.667874e+01 1.899918e+02 6.386002e+00) (1.502071e-01 7.555172e+00 -1.460715e-02) (0.000000e+00 0.000000e+00 0.000000e+00))
376           	((1.429795e+02 -1.593552e+01 -4.350887e+00) (7.373667e+00 -2.611412e-01 -5.880718e-01) (0.000000e+00 0.000000e+00 0.000000e+00)) ((1.677718e+01 1.904018e+02 6.391986e+00) (1.503659e-01 7.555548e+00 -1.412240e-02) (0.000000e+00 0.000000e+00 0.000000e+00))
377           	((1.431892e+02 -1.601057e+01 -4.303948e+00) (7.374422e+00 -2.610437e-01 -5.866327e-01) (0.000000e+00 0.000000e+00 0.000000e+00)) ((1.679335e+01 1.907176e+02 6.358669e+00) (1.501076e-01 7.555401e+00 -1.376574e-02) (0.000000e+00 0.000000e+00 0.000000e+00))
378           	((1.432793e+02 -1.595743e+01 -4.400108e+00) (7.374566e+00 -2.604422e-01 -5.856699e-01) (0.000000e+00 0.000000e+00 0.000000e+00)) ((1.668739e+01 1.908971e+02 6.275641e+00) (1.495192e-01 7.554660e+00 -1.348060e-02) (0.000000e+00 0.000000e+00 0.000000e+00))
379           	((1.432514e+02 -1.574386e+01 -4.670056e+00) (7.374428e+00 -2.594104e-01 -5.852965e-01) (0.000000e+00 0.000000e+00 0.000000e+00)) ((1.643482e+01 1.909282e+02 6.138561e+00) (1.486313e-01 7.553632e+00 -1.328793e-02) (0.000000e+00 0.000000e+00 0.000000e+00))
380           	((1.430974e+02 -1.536372e+01 -5.146981e+00) (7.373834e+00 -2.580334e-01 -5.854373e-01) (0.000000e+00 0.000000e+00 0.000000e+00)) ((1.603817e+01 1.907919e+02 5.947702e+00) (1.475210e-01 7.552155e+00 -1.309149e-02) (0.000000e+00 0.000000e+00 0.000000e+00))
381           	((1.428462e+02 -1.485131e+01 -5.815927e+00) (7.372973e+00 -2.564050e-01 -5.859783e-01) (0.000000e+00 0.000000e+00 0.000000e+00)) ((1.553280e+01 1.905157e+02 5.714633e+00) (1.462196e-01 7.550447e+00 -1.291781e-02) (0.000000e+00 0.000000e+00 0.000000e+00))
382           	((1.425012e+02 -1.421574e+01 -6.616854e+00) (7.372059e+00 -2.546253e-01 -5.867006e-01) (0.000000e+00 0.000000e+00 0.000000e+00)) ((1.493133e+01 1.901158e+02 5.445347e+00) (1.448129e-01 7.548725e+00 -1.271111e-02) (0.000000e+00 0.000000e+00 0.000000e+00))
383           	((1.420872e+02 -1.350663e+01 -7.527073e+00) (7.371097e+00 -2.529490e-01 -5.874561e-01) (0.000000e+00 0.000000e+00 0.000000e+00)) ((1.427831e+01 1.896160e+02 5.155785e+00) (1.434869e-01 7.547033e+00 -1.243677e-02) (0.000000e+00 0.000000e+00 0.000000e+00))
384           	((1.416342e+02 -1.274971e+01 -8.468122e+00) (7.370299e+00 -2.513279e-01 -5.882064e-01) (0.000000e+00 0.000000e+00 0.000000e+00)) ((1.359743e+01 1.890598e+02 4.858326e+00) (1.422014e-01 7.545520e+00 -1.212216e-02) (0.000000e+00 0.000000e+00 0.000000e+00))
385           	((1.411823e+02 -1.197595e+01 -9.375796e+00) (7.369815e+00 -2.499063e-01 -5.888656e-01) (0.000000e+00 0.000000e+00 0.000000e+00)) ((1.291428e+01 1.884953e+02 4.565085e+00) (1.410766e-01 7.544348e+00 -1.174144e-02) (0.000000e+00 0.000000e+00 0.000000e+00))
386           	((1.407626e+02 -1.125264e+01 -1.018921e+01) (7.369814e+00 -2.486574e-01 -5.895010e-01) (0.000000e+00 0.000000e+00 0.000000e+00)) ((1.228879e+01 1.879664e+02 4.296972e+00) (1.400710e-01 7.543599e+00 -1.133298e-02) (0.000000e+00 0.000000e+00 0.000000e+00))
387           	((1.404231e+02 -1.059899e+01 -1.086337e+01) (7.370298e+00 -2.477347e-01 -5.900071e-01) (0.000000e+00 0.000000e+00 0.000000e+00)) ((1.173237e+01 1.875300e+02 4.059883e+00) (1.393252e-01 7.543285e+00 -1.089344e-02) (0.000000e+00 0.000000e+00 0.000000e+00))
388           	((1.401730e+02 -1.006203e+01 -1.135736e+01) (7.371486e+00 -2.472114e-01 -5.903646e-01) (0.000000e+00 0.000000e+00 0.000000e+00)) ((1.128647e+01 1.872009e+02 3.869775e+00) (1.389242e-01 7.543581e+00 -1.040015e-02) (0.000000e+00 0.000000e+00 0.000000e+00))
389           	((1.400384e+02 -9.679820e+00 -1.165262e+01) (7.373146e+00 -2.471538e-01 -5.905344e-01) (0.000000e+00 0.000000e+00 0.000000e+00)) ((1.097904e+01 1.870127e+02 3.734565e+00) (1.388876e-01 7.544277e+00 -9.886885e-03) (0.000000e+00 0.000000e+00 0.000000e+00))
390           	((1.400119e+02 -9.507977e+00 -1.175371e+01) (7.375377e+00 -2.475526e-01 -5.906129e-01) (0.000000e+00 0.000000e+00 0.000000e+00)) ((1.085868e+01 1.869563e+02 3.668643e+00) (1.392076e-01 7.545402e+00 -9.385607e-03) (0.000000e+00 0.000000e+00 0.000000e+00))
391           	((1.400891e+02 -9.564225e+00 -1.166000e+01) (7.377995e+00 -2.484116e-01 -5.904918e-01) (0.000000e+00 0.000000e+00 0.000000e+00)) ((1.094044e+01 1.870337e+02 3.679359e+00) (1.398704e-01 7.546840e+00 -8.906044e-03) (0.000000e+00 0.000000e+00 0.000000e+00))
392           	((1.402485e+02 -9.875515e+00 -1.137592e+01) (7.380798e+00 -2.496273e-01 -5.901676e-01) (0.000000e+00 0.000000e+00 0.000000e+00)) ((1.125009e+01 1.872299e+02 3.774349e+00) (1.408151e-01 7.548400e+00 -8.482153e-03) (0.000000e+00 0.000000e+00 0.000000e+00))
393           	((1.404772e+02 -1.040189e+01 -1.096192e+01) (7.383653e+00 -2.510281e-01 -5.896314e-01) (0.000000e+00 0.000000e+00 0.000000e+00)) ((1.175035e+01 1.875325e+02 3.943543e+00) (1.418916e-01 7.549985e+00 -8.179526e-03) (0.000000e+00 0.000000e+00 0.000000e+00))
394           	((1.407319e+02 -1.106521e+01 -1.045017e+01) (7.386248e+00 -2.526436e-01 -5.889028e-01) (0.000000e+00 0.000000e+00 0.000000e+00)) ((1.236936e+01 1.878963e+02 4.165382e+00) (1.431573e-01 7.551321e+00 -7.957601e-03) (0.000000e+00 0.000000e+00 0.000000e+00))
395           	((1.409766e+02 -1.188151e+01 -9.938848e+00) (7.388596e+00 -2.543460e-01 -5.880121e-01) (0.000000e+00 0.000000e+00 0.000000e+00)) ((1.312381e+01 1.882660e+02 4.438840e+00) (1.445113e-01 7.552423e+00 -7.845129e-03) (0.000000e+00 0.000000e+00 0.000000e+00))
396           	((1.411814e+02 -1.278873e+01 -9.465349e+00) (7.390598e+00 -2.561375e-01 -5.870686e-01) (0.000000e+00 0.000000e+00 0.000000e+00)) ((1.395860e+01 1.886120e+02 4.744181e+00) (1.459872e-01 7.553203e+00 -7.796187e-03) (0.000000e+00 0.000000e+00 0.000000e+00))
397           	((1.413358e+02 -1.368308e+01 -9.071513e+00) (7.392410e+00 -2.580166e-01 -5.860168e-01) (0.000000e+00 0.000000e+00 0.000000e+00)) ((1.477879e+01 1.889174e+02 5.053140e+00) (1.475930e-01 7.553830e+00 -7.782943e-03) (0.000000e+00 0.000000e+00 0.000000e+00))
398           	((1.414198e+02 -1.453701e+01 -8.786611e+00) (7.393988e+00 -2.599127e-01 -5.849788e-01) (0.000000e+00 0.000000e+00 0.000000e+00)) ((1.556024e+01 1.891564e+02 5.357232e+00) (1.492672e-01 7.554245e+00 -7.781764e-03) (0.000000e+00 0.000000e+00 0.000000e+00))
399           	((1.414488e+02 -1.533658e+01 -8.595992e+00) (7.395535e+00 -2.618983e-01 -5.840636e-01) (0.000000e+00 0.000000e+00 0.000000e+00)) ((1.628882e+01 1.893468e+02 5.648675e+00) (1.510983e-01 7.554600e+00 -7.724125e-03) (0.000000e+00 0.000000e+00 0.000000e+00))
400           	((1.414200e+02 -1.603374e+01 -8.470560e+00) (7.396936e+00 -2.639270e-01 -5.831779e-01) (0.000000e+00 0.000000e+00 0.000000e+00)) ((1.692284e+01 1.894878e+02 5.913669e+00) (1.530645e-01 7.554813e+00 -7.587171e-03) (0.000000e+00 0.000000e+00 0.000000e+00))
401           	((1.413378e+02 -1.659081e+01 -8.410823e+00) (7.398183e+00 -2.658675e-01 -5.823840e-01) (0.000000e+00 0.000000e+00 0.000000e+00)) ((1.742779e+01 1.895815e+02 6.137754e+00) (1.550191e-01 7.554862e+00 -7.483658e-03) (0.000000e+00 0.000000e+00 0.000000e+00))
402           	((1.412114e+02 -1.704443e+01 -8.399849e+00) (7.399131e+00 -2.675942e-01 -5.816129e-01) (0.000000e+00 0.000000e+00 0.000000e+00)) ((1.783667e+01 1.896363e+02 6.328369e+00) (1.568434e-01 7.554640e+00 -7.455152e-03) (0.000000e+00 0.000000e+00 0.000000e+00))
403           	((1.410535e+02 -1.739407e+01 -8.397237e+00) (7.399789e+00 -2.690479e-01 -5.808780e-01) (0.000000e+00 0.000000e+00 0.000000e+00)) ((1.814871e+01 1.896646e+02 6.481604e+00) (1.584823e-01 7.554154e+00 -7.521192e-03) (0.000000e+00 0.000000e+00 0.000000e+00))
404           	((1.408615e+02 -1.764729e+01 -8.405568e+00) (7.400065e+00 -2.701938e-01 -5.802404e-01) (0.000000e+00 0.000000e+00 0.000000e+00)) ((1.837404e+01 1.896592e+02 6.599039e+00) (1.599094e-01 7.553314e+00 -7.700830e-03) (0.000000e+00 0.000000e+00 0.000000e+00))
405           	((1.406380e+02 -1.779328e+01 -8.427580e+00) (7.400224e+00 -2.710157e-01 -5.797236e-01) (0.000000e+00 0.000000e+00 0.000000e+00)) ((1.850450e+01 1.896128e+02 6.677910e+00) (1.610947e-01 7.552381e+00 -8.010220e-03) (0.000000e+00 0.000000e+00 0.000000e+00))
406           	((1.403894e+02 -1.782775e+01 -8.459313e+00) (7.400162e+00 -2.713999e-01 -5.791852e-01) (0.000000e+00 0.000000e+00 0.000000e+00)) ((1.853669e+01 1.895358e+02 6.716892e+00) (1.618990e-01 7.551310e+00 -8.477522e-03) (0.000000e+00 0.000000e+00 0.000000e+00))
407           	((1.401055e+02 -1.774485e+01 -8.519679e+00) (7.400125e+00 -2.715329e-01 -5.787450e-01) (0.000000e+00 0.000000e+00 0.000000e+00)) ((1.846472e+01 1.894052e+02 6.714470e+00) (1.624823e-01 7.550251e+00 -9.023758e-03) (0.000000e+00 0.000000e+00 0.000000e+00))
408           	((1.397602e+02 -1.756300e+01 -8.624923e+00) (7.400010e+00 -2.712272e-01 -5.784196e-01) (0.000000e+00 0.000000e+00 0.000000e+00)) ((1.830766e+01 1.891821e+02 6.677413e+00) (1.626443e-01 7.549103e+00 -9.724116e-03) (0.000000e+00 0.000000e+00 0.000000e+00))
409           	((1.393507e+02 -1.729010e+01 -8.803424e+00) (7.399657e+00 -2.703818e-01 -5.781651e-01) (0.000000e+00 0.000000e+00 0.000000e+00)) ((1.807279e+01 1.888614e+02 6.608139e+00) (1.622897e-01 7.547735e+00 -1.057563e-02) (0.000000e+00 0.000000e+00 0.000000e+00))
410           	((1.388698e+02 -1.695413e+01 -9.056338e+00) (7.399236e+00 -2.690840e-01 -5.780319e-01) (0.000000e+00 0.000000e+00 0.000000e+00)) ((1.778618e+01 1.884388e+02 6.514527e+00) (1.615004e-01 7.546286e+00 -1.156750e-02) (0.000000e+00 0.000000e+00 0.000000e+00))
411           	((1.383168e+02 -1.655743e+01 -9.409683e+00) (7.398592e+00 -2.673623e-01 -5.779760e-01) (0.000000e+00 0.000000e+00 0.000000e+00)) ((1.745132e+01 1.879043e+02 6.400603e+00) (1.602697e-01 7.544605e+00 -1.266190e-02) (0.000000e+00 0.000000e+00 0.000000e+00))
412           	((1.377095e+02 -1.611669e+01 -9.863814e+00) (7.397773e+00 -2.653422e-01 -5.780218e-01) (0.000000e+00 0.000000e+00 0.000000e+00)) ((1.708323e+01 1.872808e+02 6.272547e+00) (1.586591e-01 7.542778e+00 -1.384214e-02) (0.000000e+00 0.000000e+00 0.000000e+00))
413           	((1.370705e+02 -1.563177e+01 -1.040936e+01) (7.396754e+00 -2.631623e-01 -5.780867e-01) (0.000000e+00 0.000000e+00 0.000000e+00)) ((1.668032e+01 1.865914e+02 6.133077e+00) (1.568175e-01 7.540779e+00 -1.503871e-02) (0.000000e+00 0.000000e+00 0.000000e+00))
414           	((1.364136e+02 -1.510822e+01 -1.103168e+01) (7.395491e+00 -2.607941e-01 -5.781797e-01) (0.000000e+00 0.000000e+00 0.000000e+00)) ((1.624687e+01 1.858460e+02 5.986682e+00) (1.546678e-01 7.538574e+00 -1.631583e-02) (0.000000e+00 0.000000e+00 0.000000e+00))
415           	((1.357736e+02 -1.454102e+01 -1.170764e+01) (7.393975e+00 -2.583236e-01 -5.784390e-01) (0.000000e+00 0.000000e+00 0.000000e+00)) ((1.577349e+01 1.850791e+02 5.835493e+00) (1.522691e-01 7.536095e+00 -1.763878e-02) (0.000000e+00 0.000000e+00 0.000000e+00))
416           	((1.351716e+02 -1.393542e+01 -1.241232e+01) (7.391922e+00 -2.557764e-01 -5.788299e-01) (0.000000e+00 0.000000e+00 0.000000e+00)) ((1.526402e+01 1.843119e+02 5.683419e+00) (1.496791e-01 7.533100e+00 -1.903634e-02) (0.000000e+00 0.000000e+00 0.000000e+00))
417           	((1.346478e+02 -1.331232e+01 -1.310088e+01) (7.389507e+00 -2.531377e-01 -5.793353e-01) (0.000000e+00 0.000000e+00 0.000000e+00)) ((1.473385e+01 1.835906e+02 5.536023e+00) (1.468887e-01 7.529731e+00 -2.053129e-02) (0.000000e+00 0.000000e+00 0.000000e+00))
418           	((1.342362e+02 -1.267091e+01 -1.373333e+01) (7.386644e+00 -2.505373e-01 -5.799540e-01) (0.000000e+00 0.000000e+00 0.000000e+00)) ((1.418124e+01 1.829724e+02 5.395507e+00) (1.440542e-01 7.525958e+00 -2.203810e-02) (0.000000e+00 0.000000e+00 0.000000e+00))
419           	((1.339409e+02 -1.204166e+01 -1.428796e+01) (7.383355e+00 -2.481288e-01 -5.806207e-01) (0.000000e+00 0.000000e+00 0.000000e+00)) ((1.363053e+01 1.824710e+02 5.268954e+00) (1.413465e-01 7.521800e+00 -2.354243e-02) (0.000000e+00 0.000000e+00 0.000000e+00))
420           	((1.337666e+02 -1.145612e+01 -1.474960e+01) (7.379679e+00 -2.458885e-01 -5.813502e-01) (0.000000e+00 0.000000e+00 0.000000e+00)) ((1.311103e+01 1.821055e+02 5.158057e+00) (1.387274e-01 7.517306e+00 -2.502281e-02) (0.000000e+00 0.000000e+00 0.000000e+00))
421           	((1.337252e+02 -1.094317e+01 -1.506394e+01) (7.375615e+00 -2.437855e-01 -5.821400e-01) (0.000000e+00 0.000000e+00 0.000000e+00)) ((1.265013e+01 1.819053e+02 5.065651e+00) (1.361832e-01 7.512471e+00 -2.650027e-02) (0.000000e+00 0.000000e+00 0.000000e+00))
422           	((1.337884e+02 -1.049906e+01 -1.524143e+01) (7.371221e+00 -2.417124e-01 -5.830297e-01) (0.000000e+00 0.000000e+00 0.000000e+00)) ((1.224799e+01 1.818480e+02 4.993752e+00) (1.336524e-01 7.507326e+00 -2.799616e-02) (0.000000e+00 0.000000e+00 0.000000e+00))
423           	((1.339449e+02 -1.016460e+01 -1.528118e+01) (7.366769e+00 -2.396007e-01 -5.841137e-01) (0.000000e+00 0.000000e+00 0.000000e+00)) ((1.194270e+01 1.819257e+02 4.947010e+00) (1.310973e-01 7.502113e+00 -2.948575e-02) (0.000000e+00 0.000000e+00 0.000000e+00))
424           	((1.341682e+02 -9.925196e+00 -1.519638e+01) (7.362451e+00 -2.373338e-01 -5.853661e-01) (0.000000e+00 0.000000e+00 0.000000e+00)) ((1.172235e+01 1.821109e+02 4.922474e+00) (1.284221e-01 7.497049e+00 -3.099160e-02) (0.000000e+00 0.000000e+00 0.000000e+00))
425           	((1.344344e+02 -9.760925e+00 -1.501885e+01) (7.358297e+00 -2.347920e-01 -5.867806e-01) (0.000000e+00 0.000000e+00 0.000000e+00)) ((1.157176e+01 1.823639e+02 4.917633e+00) (1.255689e-01 7.492178e+00 -3.255504e-02) (0.000000e+00 0.000000e+00 0.000000e+00))
426           	((1.347265e+02 -9.630825e+00 -1.477542e+01) (7.354409e+00 -2.319119e-01 -5.881854e-01) (0.000000e+00 0.000000e+00 0.000000e+00)) ((1.145504e+01 1.826555e+02 4.920837e+00) (1.224807e-01 7.487626e+00 -3.417113e-02) (0.000000e+00 0.000000e+00 0.000000e+00))
427           	((1.350342e+02 -9.512028e+00 -1.446323e+01) (7.350736e+00 -2.285098e-01 -5.895211e-01) (0.000000e+00 0.000000e+00 0.000000e+00)) ((1.135097e+01 1.829706e+02 4.920346e+00) (1.189704e-01 7.483395e+00 -3.589921e-02) (0.000000e+00 0.000000e+00 0.000000e+00))
428           	((1.353473e+02 -9.396536e+00 -1.410510e+01) (7.347202e+00 -2.247112e-01 -5.905671e-01) (0.000000e+00 0.000000e+00 0.000000e+00)) ((1.125241e+01 1.832949e+02 4.909675e+00) (1.151885e-01 7.479421e+00 -3.769092e-02) (0.000000e+00 0.000000e+00 0.000000e+00))
429           	((1.356834e+02 -9.290950e+00 -1.368440e+01) (7.343730e+00 -2.204873e-01 -5.914631e-01) (0.000000e+00 0.000000e+00 0.000000e+00)) ((1.116450e+01 1.836409e+02 4.890436e+00) (1.111126e-01 7.475615e+00 -3.953321e-02) (0.000000e+00 0.000000e+00 0.000000e+00))
430           	((1.360205e+02 -9.174085e+00 -1.323527e+01) (7.340198e+00 -2.158990e-01 -5.919945e-01) (0.000000e+00 0.000000e+00 0.000000e+00)) ((1.106798e+01 1.839800e+02 4.860039e+00) (1.068018e-01 7.471877e+00 -4.139947e-02) (0.000000e+00 0.000000e+00 0.000000e+00))
431           	((1.363940e+02 -9.078986e+00 -1.274697e+01) (7.336738e+00 -2.110530e-01 -5.922875e-01) (0.000000e+00 0.000000e+00 0.000000e+00)) ((1.099082e+01 1.843480e+02 4.827480e+00) (1.023422e-01 7.468325e+00 -4.325855e-02) (0.000000e+00 0.000000e+00 0.000000e+00))
432           	((1.368122e+02 -9.022196e+00 -1.220371e+01) (7.333224e+00 -2.059944e-01 -5.922130e-01) (0.000000e+00 0.000000e+00 0.000000e+00)) ((1.095085e+01 1.847676e+02 4.799992e+00) (9.775277e-02 7.464853e+00 -4.509185e-02) (0.000000e+00 0.000000e+00 0.000000e+00))
433           	((1.372907e+02 -9.020502e+00 -1.155619e+01) (7.329922e+00 -2.007913e-01 -5.919487e-01) (0.000000e+00 0.000000e+00 0.000000e+00)) ((1.096243e+01 1.852739e+02 4.783499e+00) (9.309332e-02 7.461657e+00 -4.690216e-02) (0.000000e+00 0.000000e+00 0.000000e+00))
434           	((1.378326e+02 -9.107065e+00 -1.079588e+01) (7.326684e+00 -1.955415e-01 -5.914827e-01) (0.000000e+00 0.000000e+00 0.000000e+00)) ((1.105677e+01 1.858757e+02 4.787897e+00) (8.845086e-02 7.458605e+00 -4.863341e-02) (0.000000e+00 0.000000e+00 0.000000e+00))
435           	((1.384542e+02 -9.288054e+00 -9.882501e+00) (7.323774e+00 -1.902686e-01 -5.909422e-01) (0.000000e+00 0.000000e+00 0.000000e+00)) ((1.123817e+01 1.865928e+02 4.816480e+00) (8.385672e-02 7.455902e+00 -5.034370e-02) (0.000000e+00 0.000000e+00 0.000000e+00))
436           	((1.391470e+02 -9.545816e+00 -8.845309e+00) (7.321240e+00 -1.848721e-01 -5.905174e-01) (0.000000e+00 0.000000e+00 0.000000e+00)) ((1.148956e+01 1.874188e+02 4.869240e+00) (7.918445e-02 7.453531e+00 -5.205629e-02) (0.000000e+00 0.000000e+00 0.000000e+00))
437           	((1.398996e+02 -9.881307e+00 -7.713511e+00) (7.319216e+00 -1.794954e-01 -5.903349e-01) (0.000000e+00 0.000000e+00 0.000000e+00)) ((1.181024e+01 1.883312e+02 4.947023e+00) (7.453738e-02 7.451601e+00 -5.375063e-02) (0.000000e+00 0.000000e+00 0.000000e+00))
438           	((1.407015e+02 -1.032756e+01 -6.512736e+00) (7.317540e+00 -1.741739e-01 -5.903585e-01) (0.000000e+00 0.000000e+00 0.000000e+00)) ((1.223111e+01 1.893208e+02 5.060392e+00) (6.998450e-02 7.449973e+00 -5.540410e-02) (0.000000e+00 0.000000e+00 0.000000e+00))
439           	((1.415194e+02 -1.086793e+01 -5.327918e+00) (7.316317e+00 -1.690034e-01 -5.906913e-01) (0.000000e+00 0.000000e+00 0.000000e+00)) ((1.273469e+01 1.903362e+02 5.205825e+00) (6.560278e-02 7.448726e+00 -5.702809e-02) (0.000000e+00 0.000000e+00 0.000000e+00))
440           	((1.422997e+02 -1.149016e+01 -4.226826e+00) (7.315528e+00 -1.640595e-01 -5.913280e-01) (0.000000e+00 0.000000e+00 0.000000e+00)) ((1.331081e+01 1.913149e+02 5.383874e+00) (6.147265e-02 7.447832e+00 -5.858415e-02) (0.000000e+00 0.000000e+00 0.000000e+00))
441           	((1.430011e+02 -1.218528e+01 -3.267665e+00) (7.315099e+00 -1.594914e-01 -5.922498e-01) (0.000000e+00 0.000000e+00 0.000000e+00)) ((1.395232e+01 1.921982e+02 5.594121e+00) (5.773478e-02 7.447218e+00 -6.001912e-02) (0.000000e+00 0.000000e+00 0.000000e+00))
442           	((1.435767e+02 -1.294453e+01 -2.493617e+00) (7.315136e+00 -1.552174e-01 -5.933766e-01) (0.000000e+00 0.000000e+00 0.000000e+00)) ((1.465173e+01 1.929303e+02 5.835793e+00) (5.432521e-02 7.446989e+00 -6.139968e-02) (0.000000e+00 0.000000e+00 0.000000e+00))
443           	((1.440005e+02 -1.374666e+01 -1.936092e+00) (7.315529e+00 -1.512873e-01 -5.946505e-01) (0.000000e+00 0.000000e+00 0.000000e+00)) ((1.539042e+01 1.934730e+02 6.100217e+00) (5.129596e-02 7.447060e+00 -6.267612e-02) (0.000000e+00 0.000000e+00 0.000000e+00))
444           	((1.442299e+02 -1.452325e+01 -1.616839e+00) (7.316460e+00 -1.476974e-01 -5.960293e-01) (0.000000e+00 0.000000e+00 0.000000e+00)) ((1.610462e+01 1.937750e+02 6.369190e+00) (4.864336e-02 7.447599e+00 -6.385799e-02) (0.000000e+00 0.000000e+00 0.000000e+00))
445           	((1.442478e+02 -1.525580e+01 -1.546541e+00) (7.317800e+00 -1.444593e-01 -5.974586e-01) (0.000000e+00 0.000000e+00 0.000000e+00)) ((1.677601e+01 1.938072e+02 6.631128e+00) (4.635411e-02 7.448530e+00 -6.490984e-02) (0.000000e+00 0.000000e+00 0.000000e+00))
446           	((1.440770e+02 -1.589426e+01 -1.669184e+00) (7.319574e+00 -1.414615e-01 -5.989641e-01) (0.000000e+00 0.000000e+00 0.000000e+00)) ((1.735812e+01 1.936116e+02 6.868869e+00) (4.430275e-02 7.449861e+00 -6.588539e-02) (0.000000e+00 0.000000e+00 0.000000e+00))
447           	((1.437639e+02 -1.643019e+01 -1.917182e+00) (7.321482e+00 -1.385563e-01 -6.004824e-01) (0.000000e+00 0.000000e+00 0.000000e+00)) ((1.783956e+01 1.932499e+02 7.074196e+00) (4.235314e-02 7.451347e+00 -6.681378e-02) (0.000000e+00 0.000000e+00 0.000000e+00))
448           	((1.433526e+02 -1.688191e+01 -2.229318e+00) (7.323457e+00 -1.356281e-01 -6.018735e-01) (0.000000e+00 0.000000e+00 0.000000e+00)) ((1.823694e+01 1.927961e+02 7.247339e+00) (4.035612e-02 7.452975e+00 -6.773738e-02) (0.000000e+00 0.000000e+00 0.000000e+00))
449           	((1.428857e+02 -1.725254e+01 -2.545441e+00) (7.325472e+00 -1.326593e-01 -6.032149e-01) (0.000000e+00 0.000000e+00 0.000000e+00)) ((1.855380e+01 1.923095e+02 7.386207e+00) (3.828170e-02 7.454711e+00 -6.863955e-02) (0.000000e+00 0.000000e+00 0.000000e+00))
450           	((1.423778e+02 -1.754463e+01 -2.870732e+00) (7.327431e+00 -1.297562e-01 -6.044739e-01) (0.000000e+00 0.000000e+00 0.000000e+00)) ((1.879100e+01 1.918085e+02 7.489981e+00) (3.619821e-02 7.456446e+00 -6.951329e-02) (0.000000e+00 0.000000e+00 0.000000e+00))
451           	((1.418384e+02 -1.775011e+01 -3.204223e+00) (7.329213e+00 -1.269812e-01 -6.056223e-01) (0.000000e+00 0.000000e+00 0.000000e+00)) ((1.894056e+01 1.913079e+02 7.555246e+00) (3.417925e-02 7.458138e+00 -7.030348e-02) (0.000000e+00 0.000000e+00 0.000000e+00))
452           	((1.412690e+02 -1.787021e+01 -3.549304e+00) (7.330665e+00 -1.243502e-01 -6.066967e-01) (0.000000e+00 0.000000e+00 0.000000e+00)) ((1.900560e+01 1.908132e+02 7.583569e+00) (3.225118e-02 7.459603e+00 -7.099529e-02) (0.000000e+00 0.000000e+00 0.000000e+00))
453           	((1.406676e+02 -1.793410e+01 -3.937922e+00) (7.331813e+00 -1.217928e-01 -6.075283e-01) (0.000000e+00 0.000000e+00 0.000000e+00)) ((1.901375e+01 1.902975e+02 7.582171e+00) (3.034667e-02 7.460902e+00 -7.160271e-02) (0.000000e+00 0.000000e+00 0.000000e+00))
454           	((1.400418e+02 -1.797220e+01 -4.379083e+00) (7.332687e+00 -1.193613e-01 -6.082388e-01) (0.000000e+00 0.000000e+00 0.000000e+00)) ((1.899832e+01 1.897620e+02 7.562397e+00) (2.856527e-02 7.462033e+00 -7.211308e-02) (0.000000e+00 0.000000e+00 0.000000e+00))
455           	((1.394068e+02 -1.800315e+01 -4.887405e+00) (7.333274e+00 -1.169826e-01 -6.084981e-01) (0.000000e+00 0.000000e+00 0.000000e+00)) ((1.897850e+01 1.892097e+02 7.531806e+00) (2.680817e-02 7.463081e+00 -7.253759e-02) (0.000000e+00 0.000000e+00 0.000000e+00))
456           	((1.387663e+02 -1.804437e+01 -5.456101e+00) (7.333361e+00 -1.147323e-01 -6.082775e-01) (0.000000e+00 0.000000e+00 0.000000e+00)) ((1.897157e+01 1.886353e+02 7.498657e+00) (2.517047e-02 7.463832e+00 -7.287567e-02) (0.000000e+00 0.000000e+00 0.000000e+00))
457           	((1.381444e+02 -1.810508e+01 -6.075944e+00) (7.332694e+00 -1.125694e-01 -6.074945e-01) (0.000000e+00 0.000000e+00 0.000000e+00)) ((1.898575e+01 1.880457e+02 7.467048e+00) (2.362677e-02 7.464088e+00 -7.313607e-02) (0.000000e+00 0.000000e+00 0.000000e+00))
458           	((1.375353e+02 -1.818738e+01 -6.746142e+00) (7.331578e+00 -1.105352e-01 -6.060645e-01) (0.000000e+00 0.000000e+00 0.000000e+00)) ((1.902350e+01 1.874265e+02 7.442628e+00) (2.222775e-02 7.464131e+00 -7.328465e-02) (0.000000e+00 0.000000e+00 0.000000e+00))
459           	((1.369513e+02 -1.827948e+01 -7.451557e+00) (7.329618e+00 -1.086654e-01 -6.040214e-01) (0.000000e+00 0.000000e+00 0.000000e+00)) ((1.907051e+01 1.867923e+02 7.423838e+00) (2.099113e-02 7.463577e+00 -7.334539e-02) (0.000000e+00 0.000000e+00 0.000000e+00))