# Forces      
# CofR        : (0.000000e+00 0.000000e+00 0.000000e+00)
# Time        forces(pressure viscous porous)	moments(pressure viscous porous)
350           	((-2.131157e-01 3.974957e-01 -3.131641e+00) (2.070473e-01 1.939337e-03 -2.500527e-02) (0.000000e+00 0.000000e+00 0.000000e+00)) ((-5.795848e-01 1.855440e+00 2.618427e-01) (-4.443323e-03 3.008626e-01 6.458416e-05) (0.000000e+00 0.000000e+00 0.000000e+00))
351           	((-3.441574e-01 3.115564e-01 -3.102296e+00) (2.072048e-01 2.177064e-03 -2.432113e-02) (0.000000e+00 0.000000e+00 0.000000e+00)) ((-4.676366e-01 1.663211e+00 2.093012e-01) (-4.852795e-03 3.006195e-01 2.860640e-04) (0.000000e+00 0.000000e+00 0.000000e+00))
352           	((-4.747995e-01 2.294982e-01 -3.080224e+00) (2.074720e-01 2.352774e-03 -2.362070e-02) (0.000000e+00 0.000000e+00 0.000000e+00)) ((-3.599973e-01 1.475087e+00 1.583468e-01) (-5.167778e-03 3.005100e-01 4.592036e-04) (0.000000e+00 0.000000e+00 0.000000e+00))
353           	((-6.060531e-01 1.522377e-01 -3.064560e+00) (2.078142e-01 2.448465e-03 -2.291344e-02) (0.000000e+00 0.000000e+00 0.000000e+00)) ((-2.578042e-01 1.289373e+00 1.095390e-01) (-5.367660e-03 3.004943e-01 5.684947e-04) (0.000000e+00 0.000000e+00 0.000000e+00))
354           	((-7.214671e-01 7.644292e-02 -3.052336e+00) (2.082112e-01 2.420819e-03 -2.220116e-02) (0.000000e+00 0.000000e+00 0.000000e+00)) ((-1.565834e-01 1.126196e+00 6.080744e-02) (-5.393407e-03 3.005484e-01 5.846739e-04) (0.000000e+00 0.000000e+00 0.000000e+00))
355           	((-8.216051e-01 4.008281e-03 -3.040523e+00) (2.085963e-01 2.275988e-03 -2.152770e-02) (0.000000e+00 0.000000e+00 0.000000e+00)) ((-5.898433e-02 9.830748e-01 1.350628e-02) (-5.256073e-03 3.006098e-01 5.076407e-04) (0.000000e+00 0.000000e+00 0.000000e+00))
356           	((-9.045997e-01 -6.453074e-02 -3.027123e+00) (2.089422e-01 2.020688e-03 -2.091166e-02) (0.000000e+00 0.000000e+00 0.000000e+00)) ((3.409576e-02 8.609704e-01 -3.179343e-02) (-4.964556e-03 3.006563e-01 3.420547e-04) (0.000000e+00 0.000000e+00 0.000000e+00))
357           	((-9.694739e-01 -1.256476e-01 -3.009557e+00) (2.091399e-01 1.643957e-03 -2.034621e-02) (0.000000e+00 0.000000e+00 0.000000e+00)) ((1.179594e-01 7.600100e-01 -7.281711e-02) (-4.505155e-03 3.005263e-01 7.631935e-05) (0.000000e+00 0.000000e+00 0.000000e+00))
358           	((-1.005835e+00 -1.765189e-01 -2.982914e+00) (2.091411e-01 1.189843e-03 -1.982392e-02) (0.000000e+00 0.000000e+00 0.000000e+00)) ((1.887196e-01 6.912307e-01 -1.077002e-01) (-3.936113e-03 3.001514e-01 -2.568140e-04) (0.000000e+00 0.000000e+00 0.000000e+00))
359           	((-1.017867e+00 -2.193142e-01 -2.943231e+00) (2.089515e-01 6.995166e-04 -1.931701e-02) (0.000000e+00 0.000000e+00 0.000000e+00)) ((2.490323e-01 6.465490e-01 -1.378765e-01) (-3.317127e-03 2.995152e-01 -6.270613e-04) (0.000000e+00 0.000000e+00 0.000000e+00))
360           	((-1.003085e+00 -2.551080e-01 -2.889388e+00) (2.085347e-01 1.949939e-04 -1.881848e-02) (0.000000e+00 0.000000e+00 0.000000e+00)) ((3.000418e-01 6.285847e-01 -1.640258e-01) (-2.677667e-03 2.985646e-01 -1.019479e-03) (0.000000e+00 0.000000e+00 0.000000e+00))
361           	((-9.620865e-01 -2.830305e-01 -2.817433e+00) (2.078966e-01 -2.968444e-04 -1.830992e-02) (0.000000e+00 0.000000e+00 0.000000e+00)) ((3.404785e-01 6.338592e-01 -1.855255e-01) (-2.056874e-03 2.972928e-01 -1.408820e-03) (0.000000e+00 0.000000e+00 0.000000e+00))
362           	((-8.928813e-01 -3.057282e-01 -2.722294e+00) (2.070609e-01 -7.952988e-04 -1.781572e-02) (0.000000e+00 0.000000e+00 0.000000e+00)) ((3.737362e-01 6.617034e-01 -2.040141e-01) (-1.428575e-03 2.957507e-01 -1.810213e-03) (0.000000e+00 0.000000e+00 0.000000e+00))
363           	((-8.042675e-01 -3.216164e-01 -2.599618e+00) (2.060489e-01 -1.270918e-03 -1.730854e-02) (0.000000e+00 0.000000e+00 0.000000e+00)) ((3.976174e-01 6.976158e-01 -2.183258e-01) (-8.340746e-04 2.939474e-01 -2.199813e-03) (0.000000e+00 0.000000e+00 0.000000e+00))
364           	((-7.036005e-01 -3.326068e-01 -2.450766e+00) (2.048977e-01 -1.744786e-03 -1.680829e-02) (0.000000e+00 0.000000e+00 0.000000e+00)) ((4.146037e-01 7.327432e-01 -2.295302e-01) (-2.444082e-04 2.919497e-01 -2.593211e-03) (0.000000e+00 0.000000e+00 0.000000e+00))
365           	((-5.949329e-01 -3.379883e-01 -2.273503e+00) (2.035827e-01 -2.228442e-03 -1.630662e-02) (0.000000e+00 0.000000e+00 0.000000e+00)) ((4.237603e-01 7.602484e-01 -2.369487e-01) (3.544208e-04 2.897217e-01 -2.999192e-03) (0.000000e+00 0.000000e+00 0.000000e+00))
366           	((-4.762411e-01 -3.394781e-01 -2.061633e+00) (2.021581e-01 -2.730720e-03 -1.580543e-02) (0.000000e+00 0.000000e+00 0.000000e+00)) ((4.273650e-01 7.786269e-01 -2.415236e-01) (9.750968e-04 2.873390e-01 -3.422668e-03) (0.000000e+00 0.000000e+00 0.000000e+00))
367           	((-3.660884e-01 -3.359101e-01 -1.820107e+00) (2.006636e-01 -3.251318e-03 -1.532866e-02) (0.000000e+00 0.000000e+00 0.000000e+00)) ((4.240065e-01 7.665989e-01 -2.423805e-01) (1.616233e-03 2.848723e-01 -3.863604e-03) (0.000000e+00 0.000000e+00 0.000000e+00))
368           	((-2.603215e-01 -3.299784e-01 -1.546493e+00) (1.991189e-01 -3.789875e-03 -1.487728e-02) (0.000000e+00 0.000000e+00 0.000000e+00)) ((4.173934e-01 7.278688e-01 -2.411958e-01) (2.275406e-03 2.823518e-01 -4.325196e-03) (0.000000e+00 0.000000e+00 0.000000e+00))
369           	((-1.633628e-01 -3.223048e-01 -1.236892e+00) (1.975384e-01 -4.331469e-03 -1.441136e-02) (0.000000e+00 0.000000e+00 0.000000e+00)) ((4.084070e-01 6.535467e-01 -2.382939e-01) (2.937326e-03 2.797700e-01 -4.794706e-03) (0.000000e+00 0.000000e+00 0.000000e+00))
370           	((-8.032851e-02 -3.165106e-01 -9.006870e-01) (1.959232e-01 -4.876726e-03 -1.395961e-02) (0.000000e+00 0.000000e+00 0.000000e+00)) ((4.021038e-01 5.426198e-01 -2.360234e-01) (3.604315e-03 2.771547e-01 -5.273186e-03) (0.000000e+00 0.000000e+00 0.000000e+00))
371           	((-1.435629e-02 -3.168099e-01 -5.445371e-01) (1.943069e-01 -5.415730e-03 -1.351956e-02) (0.000000e+00 0.000000e+00 0.000000e+00)) ((4.043027e-01 3.949206e-01 -2.371264e-01) (4.263580e-03 2.745477e-01 -5.752029e-03) (0.000000e+00 0.000000e+00 0.000000e+00))
372           	((3.497860e-02 -3.273962e-01 -1.819538e-01) (1.927322e-01 -5.931146e-03 -1.309804e-02) (0.000000e+00 0.000000e+00 0.000000e+00)) ((4.206599e-01 2.196045e-01 -2.443880e-01) (4.891237e-03 2.720156e-01 -6.222023e-03) (0.000000e+00 0.000000e+00 0.000000e+00))
373           	((7.452944e-02 -3.477283e-01 1.775862e-01) (1.912115e-01 -6.405947e-03 -1.272037e-02) (0.000000e+00 0.000000e+00 0.000000e+00)) ((4.504324e-01 3.160216e-02 -2.575422e-01) (5.464828e-03 2.695938e-01 -6.671838e-03) (0.000000e+00 0.000000e+00 0.000000e+00))
374           	((9.539598e-02 -3.809408e-01 5.163502e-01) (1.897948e-01 -6.817406e-03 -1.238647e-02) (0.000000e+00 0.000000e+00 0.000000e+00)) ((4.978647e-01 -1.692194e-01 -2.787460e-01) (5.952977e-03 2.673515e-01 -7.088978e-03) (0.000000e+00 0.000000e+00 0.000000e+00))
375           	((1.022619e-01 -4.289481e-01 8.170343e-01) (1.885169e-01 -7.173231e-03 -1.206867e-02) (0.000000e+00 0.000000e+00 0.000000e+00)) ((5.656049e-01 -3.654627e-01 -3.093555e-01) (6.365128e-03 2.653210e-01 -7.477117e-03) (0.000000e+00 0.000000e+00 0.000000e+00))
376           	((9.711588e-02 -4.890372e-01 1.062280e+00) (1.874709e-01 -7.484230e-03 -1.175789e-02) (0.000000e+00 0.000000e+00 0.000000e+00)) ((6.497687e-01 -5.430871e-01 -3.477549e-01) (6.712984e-03 2.636183e-01 -7.840074e-03) (0.000000e+00 0.000000e+00 0.000000e+00))
377           	((8.149274e-02 -5.596721e-01 1.241669e+00) (1.867326e-01 -7.733016e-03 -1.146911e-02) (0.000000e+00 0.000000e+00 0.000000e+00)) ((7.482907e-01 -6.931347e-01 -3.931033e-01) (6.975280e-03 2.623562e-01 -8.160892e-03) (0.000000e+00 0.000000e+00 0.000000e+00))
378           	((5.179367e-02 -6.365779e-01 1.343900e+00) (1.863291e-01 -7.919676e-03 -1.118656e-02) (0.000000e+00 0.000000e+00 0.000000e+00)) ((8.549747e-01 -8.126577e-01 -4.426849e-01) (7.150330e-03 2.615648e-01 -8.437912e-03) (0.000000e+00 0.000000e+00 0.000000e+00))
379           	((1.381546e-02 -7.105583e-01 1.364880e+00) (1.863181e-01 -8.017335e-03 -1.088735e-02) (0.000000e+00 0.000000e+00 0.000000e+00)) ((9.573717e-01 -8.909909e-01 -4.906091e-01) (7.203689e-03 2.613056e-01 -8.648185e-03) (0.000000e+00 0.000000e+00 0.000000e+00))
380           	((-3.186884e-02 -7.726140e-01 1.305102e+00) (1.866626e-01 -8.035032e-03 -1.057411e-02) (0.000000e+00 0.000000e+00 0.000000e+00)) ((1.043109e+00 -9.270497e-01 -5.310777e-01) (7.148701e-03 2.615328e-01 -8.795798e-03) (0.000000e+00 0.000000e+00 0.000000e+00))
381           	((-8.754662e-02 -8.146839e-01 1.166544e+00) (1.873885e-01 -7.956940e-03 -1.026560e-02) (0.000000e+00 0.000000e+00 0.000000e+00)) ((1.101352e+00 -9.243717e-01 -5.587675e-01) (6.967848e-03 2.622929e-01 -8.862597e-03) (0.000000e+00 0.000000e+00 0.000000e+00))
382           	((-1.534770e-01 -8.330735e-01 9.560332e-01) (1.884406e-01 -7.854875e-03 -9.961047e-03) (0.000000e+00 0.000000e+00 0.000000e+00)) ((1.127330e+00 -8.871721e-01 -5.711327e-01) (6.761731e-03 2.635079e-01 -8.894516e-03) (0.000000e+00 0.000000e+00 0.000000e+00))
383           	((-2.266879e-01 -8.250453e-01 6.851052e-01) (1.897539e-01 -7.770454e-03 -9.664993e-03) (0.000000e+00 0.000000e+00 0.000000e+00)) ((1.117395e+00 -8.185493e-01 -5.662944e-01) (6.590783e-03 2.650893e-01 -8.918356e-03) (0.000000e+00 0.000000e+00 0.000000e+00))
384           	((-3.041879e-01 -7.914087e-01 3.633245e-01) (1.912438e-01 -7.709766e-03 -9.378765e-03) (0.000000e+00 0.000000e+00 0.000000e+00)) ((1.072752e+00 -7.201761e-01 -5.446468e-01) (6.462618e-03 2.669170e-01 -8.936533e-03) (0.000000e+00 0.000000e+00 0.000000e+00))
385           	((-3.851161e-01 -7.352662e-01 1.376877e-03) (1.928118e-01 -7.667447e-03 -9.123469e-03) (0.000000e+00 0.000000e+00 0.000000e+00)) ((9.976598e-01 -5.975745e-01 -5.081680e-01) (6.368713e-03 2.688678e-01 -8.950690e-03) (0.000000e+00 0.000000e+00 0.000000e+00))
386           	((-4.670161e-01 -6.638024e-01 -3.789255e-01) (1.943689e-01 -7.635421e-03 -8.909654e-03) (0.000000e+00 0.000000e+00 0.000000e+00)) ((9.019550e-01 -4.613973e-01 -4.614856e-01) (6.294693e-03 2.708245e-01 -8.956396e-03) (0.000000e+00 0.000000e+00 0.000000e+00))
387           	((-5.454574e-01 -5.786461e-01 -7.615954e-01) (1.958608e-01 -7.623080e-03 -8.713111e-03) (0.000000e+00 0.000000e+00 0.000000e+00)) ((7.879538e-01 -3.157780e-01 -4.056675e-01) (6.256823e-03 2.726993e-01 -8.961609e-03) (0.000000e+00 0.000000e+00 0.000000e+00))
388           	((-6.183787e-01 -4.853512e-01 -1.136779e+00) (1.972677e-01 -7.614471e-03 -8.519936e-03) (0.000000e+00 0.000000e+00 0.000000e+00)) ((6.631899e-01 -1.643531e-01 -3.443331e-01) (6.231850e-03 2.744567e-01 -8.956974e-03) (0.000000e+00 0.000000e+00 0.000000e+00))
389           	((-6.879548e-01 -3.888999e-01 -1.493035e+00) (1.985171e-01 -7.590067e-03 -8.302986e-03) (0.000000e+00 0.000000e+00 0.000000e+00)) ((5.344043e-01 -1.782491e-02 -2.807772e-01) (6.193802e-03 2.759847e-01 -8.935282e-03) (0.000000e+00 0.000000e+00 0.000000e+00))
390           	((-7.540107e-01 -2.913590e-01 -1.825597e+00) (1.995802e-01 -7.516867e-03 -8.060754e-03) (0.000000e+00 0.000000e+00 0.000000e+00)) ((4.043167e-01 1.206961e-01 -2.162806e-01) (6.097230e-03 2.772446e-01 -8.876409e-03) (0.000000e+00 0.000000e+00 0.000000e+00))
391           	((-8.170655e-01 -1.979453e-01 -2.133968e+00) (2.004365e-01 -7.418961e-03 -7.827439e-03) (0.000000e+00 0.000000e+00 0.000000e+00)) ((2.797547e-01 2.500314e-01 -1.541880e-01) (5.976047e-03 2.782359e-01 -8.801654e-03) (0.000000e+00 0.000000e+00 0.000000e+00))
392           	((-8.796487e-01 -1.131919e-01 -2.419302e+00) (2.011145e-01 -7.311249e-03 -7.603573e-03) (0.000000e+00 0.000000e+00 0.000000e+00)) ((1.666190e-01 3.669718e-01 -9.741108e-02) (5.848960e-03 2.789974e-01 -8.719948e-03) (0.000000e+00 0.000000e+00 0.000000e+00))
393           	((-9.395543e-01 -4.314527e-02 -2.683300e+00) (2.015565e-01 -7.217302e-03 -7.437368e-03) (0.000000e+00 0.000000e+00 0.000000e+00)) ((7.293130e-02 4.750458e-01 -4.979217e-02) (5.752105e-03 2.794901e-01 -8.650929e-03) (0.000000e+00 0.000000e+00 0.000000e+00))
394           	((-9.928800e-01 1.034468e-02 -2.923727e+00) (2.018289e-01 -7.151807e-03 -7.350372e-03) (0.000000e+00 0.000000e+00 0.000000e+00)) ((1.149754e-03 5.772717e-01 -1.247474e-02) (5.704486e-03 2.798172e-01 -8.599851e-03) (0.000000e+00 0.000000e+00 0.000000e+00))
395           	((-1.039972e+00 4.488152e-02 -3.139949e+00) (2.018877e-01 -7.139229e-03 -7.372230e-03) (0.000000e+00 0.000000e+00 0.000000e+00)) ((-4.564953e-02 6.720183e-01 1.295531e-02) (5.741182e-03 2.799444e-01 -8.584711e-03) (0.000000e+00 0.000000e+00 0.000000e+00))
396           	((-1.076806e+00 5.998604e-02 -3.330740e+00) (2.017747e-01 -7.178406e-03 -7.538209e-03) (0.000000e+00 0.000000e+00 0.000000e+00)) ((-6.675452e-02 7.632488e-01 2.610467e-02) (5.862517e-03 2.799494e-01 -8.602683e-03) (0.000000e+00 0.000000e+00 0.000000e+00))
397           	((-1.100229e+00 5.761513e-02 -3.496645e+00) (2.014607e-01 -7.287466e-03 -7.857615e-03) (0.000000e+00 0.000000e+00 0.000000e+00)) ((-6.468961e-02 8.550082e-01 2.812218e-02) (6.092140e-03 2.798011e-01 -8.669134e-03) (0.000000e+00 0.000000e+00 0.000000e+00))
398           	((-1.102291e+00 4.108340e-02 -3.635043e+00) (2.010189e-01 -7.449361e-03 -8.283709e-03) (0.000000e+00 0.000000e+00 0.000000e+00)) ((-4.376240e-02 9.552652e-01 2.101121e-02) (6.405531e-03 2.795580e-01 -8.768694e-03) (0.000000e+00 0.000000e+00 0.000000e+00))
399           	((-1.099317e+00 1.276347e-02 -3.741741e+00) (2.004866e-01 -7.664211e-03 -8.822799e-03) (0.000000e+00 0.000000e+00 0.000000e+00)) ((-7.192720e-03 1.039938e+00 6.105548e-03) (6.798730e-03 2.792715e-01 -8.907257e-03) (0.000000e+00 0.000000e+00 0.000000e+00))
400           	((-1.083180e+00 -2.108538e-02 -3.810335e+00) (1.998282e-01 -7.935662e-03 -9.444971e-03) (0.000000e+00 0.000000e+00 0.000000e+00)) ((3.659496e-02 1.115851e+00 -1.270330e-02) (7.276521e-03 2.788702e-01 -9.084070e-03) (0.000000e+00 0.000000e+00 0.000000e+00))
401           	((-1.047667e+00 -6.062891e-02 -3.845086e+00) (1.990655e-01 -8.274022e-03 -1.015046e-02) (0.000000e+00 0.000000e+00 0.000000e+00)) ((8.790481e-02 1.194004e+00 -3.564911e-02) (7.848891e-03 2.783839e-01 -9.310454e-03) (0.000000e+00 0.000000e+00 0.000000e+00))
402           	((-9.949690e-01 -1.004880e-01 -3.844784e+00) (1.982135e-01 -8.661927e-03 -1.092312e-02) (0.000000e+00 0.000000e+00 0.000000e+00)) ((1.395956e-01 1.270669e+00 -5.939416e-02) (8.490780e-03 2.778188e-01 -9.573005e-03) (0.000000e+00 0.000000e+00 0.000000e+00))
403           	((-9.222052e-01 -1.383969e-01 -3.810559e+00) (1.972718e-01 -9.073387e-03 -1.172622e-02) (0.000000e+00 0.000000e+00 0.000000e+00)) ((1.885595e-01 1.350647e+00 -8.247776e-02) (9.164136e-03 2.771506e-01 -9.852121e-03) (0.000000e+00 0.000000e+00 0.000000e+00))
404           	((-8.242728e-01 -1.706039e-01 -3.746739e+00) (1.962299e-01 -9.495182e-03 -1.254001e-02) (0.000000e+00 0.000000e+00 0.000000e+00)) ((2.298076e-01 1.443499e+00 -1.024119e-01) (9.848761e-03 2.763517e-01 -1.013695e-02) (0.000000e+00 0.000000e+00 0.000000e+00))
405           	((-7.078953e-01 -1.970227e-01 -3.653439e+00) (1.951176e-01 -9.910677e-03 -1.335261e-02) (0.000000e+00 0.000000e+00 0.000000e+00)) ((2.631294e-01 1.540799e+00 -1.191376e-01) (1.051870e-02 2.754543e-01 -1.041794e-02) (0.000000e+00 0.000000e+00 0.000000e+00))
406           	((-5.723056e-01 -2.176733e-01 -3.532355e+00) (1.940224e-01 -1.025907e-02 -1.416857e-02) (0.000000e+00 0.000000e+00 0.000000e+00)) ((2.885304e-01 1.644819e+00 -1.326117e-01) (1.108733e-02 2.745820e-01 -1.065422e-02) (0.000000e+00 0.000000e+00 0.000000e+00))
407           	((-4.233548e-01 -2.331779e-01 -3.385614e+00) (1.930129e-01 -1.051452e-02 -1.497143e-02) (0.000000e+00 0.000000e+00 0.000000e+00)) ((3.069406e-01 1.749278e+00 -1.432114e-01) (1.151849e-02 2.738170e-01 -1.082739e-02) (0.000000e+00 0.000000e+00 0.000000e+00))
408           	((-2.661901e-01 -2.454310e-01 -3.217991e+00) (1.920359e-01 -1.072194e-02 -1.570165e-02) (0.000000e+00 0.000000e+00 0.000000e+00)) ((3.210177e-01 1.850609e+00 -1.520795e-01) (1.187520e-02 2.730469e-01 -1.096276e-02) (0.000000e+00 0.000000e+00 0.000000e+00))
409           	((-1.095248e-01 -2.560395e-01 -3.035514e+00) (1.911591e-01 -1.090364e-02 -1.632633e-02) (0.000000e+00 0.000000e+00 0.000000e+00)) ((3.328670e-01 1.940964e+00 -1.601326e-01) (1.218854e-02 2.723424e-01 -1.107311e-02) (0.000000e+00 0.000000e+00 0.000000e+00))
410           	((4.184832e-02 -2.661030e-01 -2.842236e+00) (1.904166e-01 -1.105326e-02 -1.687191e-02) (0.000000e+00 0.000000e+00 0.000000e+00)) ((3.439857e-01 2.016162e+00 -1.679119e-01) (1.244995e-02 2.717683e-01 -1.115439e-02) (0.000000e+00 0.000000e+00 0.000000e+00))
411           	((1.819588e-01 -2.798982e-01 -2.643797e+00) (1.899215e-01 -1.118948e-02 -1.735440e-02) (0.000000e+00 0.000000e+00 0.000000e+00)) ((3.599758e-01 2.071778e+00 -1.780486e-01) (1.268460e-02 2.714870e-01 -1.122162e-02) (0.000000e+00 0.000000e+00 0.000000e+00))
412           	((3.044117e-01 -2.952848e-01 -2.443906e+00) (1.897174e-01 -1.131673e-02 -1.777694e-02) (0.000000e+00 0.000000e+00 0.000000e+00)) ((3.778715e-01 2.101708e+00 -1.890485e-01) (1.290020e-02 2.715647e-01 -1.127655e-02) (0.000000e+00 0.000000e+00 0.000000e+00))
413           	((4.062450e-01 -3.143078e-01 -2.249971e+00) (1.898233e-01 -1.149092e-02 -1.813065e-02) (0.000000e+00 0.000000e+00 0.000000e+00)) ((4.002220e-01 2.106893e+00 -2.021210e-01) (1.317349e-02 2.720161e-01 -1.136118e-02) (0.000000e+00 0.000000e+00 0.000000e+00))
414           	((4.875623e-01 -3.367358e-01 -2.067155e+00) (1.903265e-01 -1.174979e-02 -1.842535e-02) (0.000000e+00 0.000000e+00 0.000000e+00)) ((4.264702e-01 2.090744e+00 -2.169721e-01) (1.355797e-02 2.729674e-01 -1.150303e-02) (0.000000e+00 0.000000e+00 0.000000e+00))
415           	((5.491906e-01 -3.637411e-01 -1.899046e+00) (1.911829e-01 -1.212201e-02 -1.865802e-02) (0.000000e+00 0.000000e+00 0.000000e+00)) ((4.582264e-01 2.056707e+00 -2.343527e-01) (1.409230e-02 2.743569e-01 -1.172644e-02) (0.000000e+00 0.000000e+00 0.000000e+00))
416           	((5.928571e-01 -3.990004e-01 -1.753124e+00) (1.923682e-01 -1.264087e-02 -1.880652e-02) (0.000000e+00 0.000000e+00 0.000000e+00)) ((5.003853e-01 2.012306e+00 -2.566305e-01) (1.482012e-02 2.761329e-01 -1.205989e-02) (0.000000e+00 0.000000e+00 0.000000e+00))
417           	((6.209782e-01 -4.424411e-01 -1.632670e+00) (1.938221e-01 -1.331735e-02 -1.884302e-02) (0.000000e+00 0.000000e+00 0.000000e+00)) ((5.529748e-01 1.963211e+00 -2.838724e-01) (1.575390e-02 2.781887e-01 -1.251902e-02) (0.000000e+00 0.000000e+00 0.000000e+00))
418           	((6.354168e-01 -4.955124e-01 -1.541078e+00) (1.954546e-01 -1.415164e-02 -1.878073e-02) (0.000000e+00 0.000000e+00 0.000000e+00)) ((6.183291e-01 1.914322e+00 -3.172269e-01) (1.689074e-02 2.804131e-01 -1.310669e-02) (0.000000e+00 0.000000e+00 0.000000e+00))
419           	((6.429773e-01 -5.532080e-01 -1.480938e+00) (1.971991e-01 -1.512396e-02 -1.860288e-02) (0.000000e+00 0.000000e+00 0.000000e+00)) ((6.900289e-01 1.876883e+00 -3.537309e-01) (1.820311e-02 2.826968e-01 -1.381703e-02) (0.000000e+00 0.000000e+00 0.000000e+00))
420           	((6.543834e-01 -6.140822e-01 -1.457837e+00) (1.989862e-01 -1.619744e-02 -1.835023e-02) (0.000000e+00 0.000000e+00 0.000000e+00)) ((7.663518e-01 1.868886e+00 -3.926444e-01) (1.963756e-02 2.849751e-01 -1.462135e-02) (0.000000e+00 0.000000e+00 0.000000e+00))
421           	((6.686254e-01 -6.745073e-01 -1.469665e+00) (2.008066e-01 -1.731957e-02 -1.801595e-02) (0.000000e+00 0.000000e+00 0.000000e+00)) ((8.426148e-01 1.887575e+00 -4.317103e-01) (2.112302e-02 2.872270e-01 -1.548680e-02) (0.000000e+00 0.000000e+00 0.000000e+00))
422           	((6.858252e-01 -7.290964e-01 -1.514744e+00) (2.026294e-01 -1.843984e-02 -1.762151e-02) (0.000000e+00 0.000000e+00 0.000000e+00)) ((9.117061e-01 1.931986e+00 -4.675472e-01) (2.259051e-02 2.894266e-01 -1.636998e-02) (0.000000e+00 0.000000e+00 0.000000e+00))
423           	((7.051437e-01 -7.755010e-01 -1.589632e+00) (2.044531e-01 -1.950541e-02 -1.715702e-02) (0.000000e+00 0.000000e+00 0.000000e+00)) ((9.705666e-01 1.998769e+00 -4.986422e-01) (2.397069e-02 2.915715e-01 -1.723402e-02) (0.000000e+00 0.000000e+00 0.000000e+00))
424           	((7.271143e-01 -8.108333e-01 -1.689655e+00) (2.062651e-01 -2.052477e-02 -1.663986e-02) (0.000000e+00 0.000000e+00 0.000000e+00)) ((1.015429e+00 2.085924e+00 -5.230703e-01) (2.527541e-02 2.936604e-01 -1.807738e-02) (0.000000e+00 0.000000e+00 0.000000e+00))
425           	((7.502304e-01 -8.345900e-01 -1.810973e+00) (2.081137e-01 -2.147624e-02 -1.608793e-02) (0.000000e+00 0.000000e+00 0.000000e+00)) ((1.045576e+00 2.189322e+00 -5.404392e-01) (2.647901e-02 2.957745e-01 -1.888209e-02) (0.000000e+00 0.000000e+00 0.000000e+00))
426           	((7.752259e-01 -8.447663e-01 -1.947567e+00) (2.099486e-01 -2.238483e-02 -1.549880e-02) (0.000000e+00 0.000000e+00 0.000000e+00)) ((1.058345e+00 2.306277e+00 -5.493683e-01) (2.762051e-02 2.978456e-01 -1.965936e-02) (0.000000e+00 0.000000e+00 0.000000e+00))
427           	((8.018585e-01 -8.449803e-01 -2.094229e+00) (2.117665e-01 -2.323592e-02 -1.488654e-02) (0.000000e+00 0.000000e+00 0.000000e+00)) ((1.058554e+00 2.433372e+00 -5.520564e-01) (2.868492e-02 2.998808e-01 -2.039555e-02) (0.000000e+00 0.000000e+00 0.000000e+00))
428           	((8.229038e-01 -8.330094e-01 -2.244608e+00) (2.134929e-01 -2.402214e-02 -1.427049e-02) (0.000000e+00 0.000000e+00 0.000000e+00)) ((1.043155e+00 2.557147e+00 -5.470398e-01) (2.966672e-02 3.017903e-01 -2.108415e-02) (0.000000e+00 0.000000e+00 0.000000e+00))
429           	((8.463455e-01 -8.144422e-01 -2.396700e+00) (2.151097e-01 -2.476184e-02 -1.365741e-02) (0.000000e+00 0.000000e+00 0.000000e+00)) ((1.019617e+00 2.686842e+00 -5.378174e-01) (3.059098e-02 3.035504e-01 -2.173978e-02) (0.000000e+00 0.000000e+00 0.000000e+00))
430           	((8.639751e-01 -7.902609e-01 -2.543625e+00) (2.165248e-01 -2.548456e-02 -1.306523e-02) (0.000000e+00 0.000000e+00 0.000000e+00)) ((9.891285e-01 2.807092e+00 -5.249342e-01) (3.150091e-02 3.050512e-01 -2.238725e-02) (0.000000e+00 0.000000e+00 0.000000e+00))
431           	((8.762133e-01 -7.636822e-01 -2.683306e+00) (2.177136e-01 -2.619334e-02 -1.249920e-02) (0.000000e+00 0.000000e+00 0.000000e+00)) ((9.559384e-01 2.917051e+00 -5.104308e-01) (3.239927e-02 3.062634e-01 -2.303063e-02) (0.000000e+00 0.000000e+00 0.000000e+00))
432           	((8.819944e-01 -7.362080e-01 -2.811358e+00) (2.186335e-01 -2.685656e-02 -1.196156e-02) (0.000000e+00 0.000000e+00 0.000000e+00)) ((9.217113e-01 3.012353e+00 -4.951057e-01) (3.324625e-02 3.071268e-01 -2.364829e-02) (0.000000e+00 0.000000e+00 0.000000e+00))
433           	((8.761425e-01 -7.129836e-01 -2.929641e+00) (2.192605e-01 -2.750665e-02 -1.148756e-02) (0.000000e+00 0.000000e+00 0.000000e+00)) ((8.932887e-01 3.087230e+00 -4.821787e-01) (3.408556e-02 3.076380e-01 -2.426204e-02) (0.000000e+00 0.000000e+00 0.000000e+00))
434           	((8.601479e-01 -6.970064e-01 -3.038222e+00) (2.195849e-01 -2.813810e-02 -1.105760e-02) (0.000000e+00 0.000000e+00 0.000000e+00)) ((8.746119e-01 3.143568e+00 -4.735683e-01) (3.491075e-02 3.077676e-01 -2.486490e-02) (0.000000e+00 0.000000e+00 0.000000e+00))
435           	((8.338262e-01 -6.937836e-01 -3.136893e+00) (2.196209e-01 -2.876045e-02 -1.066036e-02) (0.000000e+00 0.000000e+00 0.000000e+00)) ((8.730708e-01 3.180642e+00 -4.727650e-01) (3.573277e-02 3.075260e-01 -2.546143e-02) (0.000000e+00 0.000000e+00 0.000000e+00))
436           	((7.845666e-01 -7.059830e-01 -3.223914e+00) (2.193962e-01 -2.935584e-02 -1.028436e-02) (0.000000e+00 0.000000e+00 0.000000e+00)) ((8.921971e-01 3.180563e+00 -4.814288e-01) (3.652461e-02 3.069419e-01 -2.603751e-02) (0.000000e+00 0.000000e+00 0.000000e+00))
437           	((7.252327e-01 -7.359456e-01 -3.301037e+00) (2.189209e-01 -2.993356e-02 -9.915415e-03) (0.000000e+00 0.000000e+00 0.000000e+00)) ((9.350733e-01 3.160986e+00 -5.010590e-01) (3.729654e-02 3.060195e-01 -2.660028e-02) (0.000000e+00 0.000000e+00 0.000000e+00))
438           	((6.540888e-01 -7.825201e-01 -3.367205e+00) (2.182345e-01 -3.048454e-02 -9.527481e-03) (0.000000e+00 0.000000e+00 0.000000e+00)) ((1.000144e+00 3.118684e+00 -5.310063e-01) (3.803414e-02 3.047890e-01 -2.713869e-02) (0.000000e+00 0.000000e+00 0.000000e+00))
439           	((5.771887e-01 -8.457541e-01 -3.425820e+00) (2.173631e-01 -3.102428e-02 -9.125973e-03) (0.000000e+00 0.000000e+00 0.000000e+00)) ((1.087357e+00 3.063534e+00 -5.713203e-01) (3.875462e-02 3.032958e-01 -2.766090e-02) (0.000000e+00 0.000000e+00 0.000000e+00))
440           	((4.960817e-01 -9.234358e-01 -3.476278e+00) (2.163304e-01 -3.154382e-02 -8.702703e-03) (0.000000e+00 0.000000e+00 0.000000e+00)) ((1.193747e+00 2.997148e+00 -6.207799e-01) (3.944647e-02 3.015588e-01 -2.815985e-02) (0.000000e+00 0.000000e+00 0.000000e+00))
441           	((4.092445e-01 -1.013447e+00 -3.519401e+00) (2.151311e-01 -3.205811e-02 -8.288994e-03) (0.000000e+00 0.000000e+00 0.000000e+00)) ((1.316314e+00 2.917867e+00 -6.780607e-01) (4.013003e-02 2.995935e-01 -2.864124e-02) (0.000000e+00 0.000000e+00 0.000000e+00))
442           	((3.172270e-01 -1.115597e+00 -3.557819e+00) (2.138364e-01 -3.255124e-02 -7.887437e-03) (0.000000e+00 0.000000e+00 0.000000e+00)) ((1.454642e+00 2.828070e+00 -7.430251e-01) (4.078327e-02 2.974944e-01 -2.909266e-02) (0.000000e+00 0.000000e+00 0.000000e+00))
443           	((2.339543e-01 -1.225238e+00 -3.590667e+00) (2.124119e-01 -3.301171e-02 -7.506348e-03) (0.000000e+00 0.000000e+00 0.000000e+00)) ((1.602587e+00 2.745381e+00 -8.128697e-01) (4.138804e-02 2.952267e-01 -2.950182e-02) (0.000000e+00 0.000000e+00 0.000000e+00))
444           	((1.600944e-01 -1.340696e+00 -3.619867e+00) (2.109141e-01 -3.342457e-02 -7.147889e-03) (0.000000e+00 0.000000e+00 0.000000e+00)) ((1.757827e+00 2.672058e+00 -8.865499e-01) (4.192944e-02 2.928614e-01 -2.986031e-02) (0.000000e+00 0.000000e+00 0.000000e+00))
445           	((1.043114e-01 -1.457586e+00 -3.645441e+00) (2.093566e-01 -3.370739e-02 -6.807828e-03) (0.000000e+00 0.000000e+00 0.000000e+00)) ((1.914355e+00 2.619247e+00 -9.613564e-01) (4.228897e-02 2.904157e-01 -3.010872e-02) (0.000000e+00 0.000000e+00 0.000000e+00))
446           	((7.349308e-02 -1.574461e+00 -3.667783e+00) (2.076993e-01 -3.389480e-02 -6.523214e-03) (0.000000e+00 0.000000e+00 0.000000e+00)) ((2.070332e+00 2.596241e+00 -1.036394e+00) (4.251906e-02 2.878706e-01 -3.027366e-02) (0.000000e+00 0.000000e+00 0.000000e+00))
447           	((6.349939e-02 -1.679882e+00 -3.682613e+00) (2.060193e-01 -3.395935e-02 -6.246493e-03) (0.000000e+00 0.000000e+00 0.000000e+00)) ((2.210401e+00 2.594752e+00 -1.104297e+00) (4.258080e-02 2.852919e-01 -3.033529e-02) (0.000000e+00 0.000000e+00 0.000000e+00))
448           	((8.065139e-02 -1.776502e+00 -3.691426e+00) (2.043700e-01 -3.391452e-02 -5.971878e-03) (0.000000e+00 0.000000e+00 0.000000e+00)) ((2.338205e+00 2.624274e+00 -1.166867e+00) (4.249433e-02 2.827527e-01 -3.030485e-02) (0.000000e+00 0.000000e+00 0.000000e+00))
449           	((1.206156e-01 -1.861591e+00 -3.693586e+00) (2.027292e-01 -3.372627e-02 -5.720040e-03) (0.000000e+00 0.000000e+00 0.000000e+00)) ((2.450093e+00 2.678811e+00 -1.222400e+00) (4.221600e-02 2.802404e-01 -3.016028e-02) (0.000000e+00 0.000000e+00 0.000000e+00))
450           	((1.709885e-01 -1.934051e+00 -3.685090e+00) (2.011570e-01 -3.340480e-02 -5.471867e-03) (0.000000e+00 0.000000e+00 0.000000e+00)) ((2.544762e+00 2.739473e+00 -1.270131e+00) (4.175689e-02 2.778234e-01 -2.990701e-02) (0.000000e+00 0.000000e+00 0.000000e+00))
451           	((2.253029e-01 -1.989605e+00 -3.664117e+00) (1.996715e-01 -3.295133e-02 -5.256212e-03) (0.000000e+00 0.000000e+00 0.000000e+00)) ((2.616499e+00 2.796701e+00 -1.307148e+00) (4.112171e-02 2.755520e-01 -2.955178e-02) (0.000000e+00 0.000000e+00 0.000000e+00))
452           	((2.828864e-01 -2.029306e+00 -3.630231e+00) (1.983243e-01 -3.239098e-02 -5.090114e-03) (0.000000e+00 0.000000e+00 0.000000e+00)) ((2.666797e+00 2.849561e+00 -1.334203e+00) (4.034722e-02 2.735103e-01 -2.911273e-02) (0.000000e+00 0.000000e+00 0.000000e+00))
453           	((3.415375e-01 -2.050645e+00 -3.582433e+00) (1.971308e-01 -3.178180e-02 -4.963080e-03) (0.000000e+00 0.000000e+00 0.000000e+00)) ((2.692391e+00 2.894566e+00 -1.349644e+00) (3.951115e-02 2.717155e-01 -2.863291e-02) (0.000000e+00 0.000000e+00 0.000000e+00))
454           	((3.991356e-01 -2.051865e+00 -3.520676e+00) (1.961341e-01 -3.112422e-02 -4.883661e-03) (0.000000e+00 0.000000e+00 0.000000e+00)) ((2.690939e+00 2.928791e+00 -1.352280e+00) (3.861677e-02 2.702344e-01 -2.811500e-02) (0.000000e+00 0.000000e+00 0.000000e+00))
455           	((4.578232e-01 -2.030893e+00 -3.446342e+00) (1.953117e-01 -3.044630e-02 -4.855299e-03) (0.000000e+00 0.000000e+00 0.000000e+00)) ((2.659733e+00 2.955970e+00 -1.340756e+00) (3.770155e-02 2.690390e-01 -2.758196e-02) (0.000000e+00 0.000000e+00 0.000000e+00))
456           	((5.104931e-01 -1.987767e+00 -3.358571e+00) (1.946797e-01 -2.981400e-02 -4.886803e-03) (0.000000e+00 0.000000e+00 0.000000e+00)) ((2.598979e+00 2.966153e+00 -1.315114e+00) (3.685714e-02 2.681594e-01 -2.708112e-02) (0.000000e+00 0.000000e+00 0.000000e+00))
457           	((5.609806e-01 -1.922863e+00 -3.257997e+00) (1.942001e-01 -2.922290e-02 -4.987383e-03) (0.000000e+00 0.000000e+00 0.000000e+00)) ((2.509293e+00 2.964852e+00 -1.275576e+00) (3.607764e-02 2.675490e-01 -2.661351e-02) (0.000000e+00 0.000000e+00 0.000000e+00))
458           	((6.101584e-01 -1.837578e+00 -3.145688e+00) (1.938244e-01 -2.869071e-02 -5.152942e-03) (0.000000e+00 0.000000e+00 0.000000e+00)) ((2.392606e+00 2.954050e+00 -1.222987e+00) (3.538882e-02 2.671415e-01 -2.619274e-02) (0.000000e+00 0.000000e+00 0.000000e+00))
459           	((6.510262e-01 -1.730363e+00 -3.019050e+00) (1.935732e-01 -2.821675e-02 -5.360971e-03) (0.000000e+00 0.000000e+00 0.000000e+00)) ((2.246783e+00 2.922618e+00 -1.156306e+00) (3.478530e-02 2.669424e-01 -2.581439e-02) (0.000000e+00 0.000000e+00 0.000000e+00))