# Forces      
# CofR        : (0.000000e+00 0.000000e+00 0.000000e+00)
# Time        forces(pressure viscous porous)	moments(pressure viscous porous)
350           	((2.997901e+01 -1.459692e+00 9.954986e-01) (6.985721e-01 2.421936e-02 -1.063106e-01) (0.000000e+00 0.000000e+00 0.000000e+00)) ((1.360142e+00 2.716527e+01 8.298188e-01) (-2.522112e-02 6.655582e-01 -1.505625e-02) (0.000000e+00 0.000000e+00 0.000000e+00))
351           	((2.990501e+01 -1.266551e+00 7.695143e-01) (6.966051e-01 2.420869e-02 -1.050323e-01) (0.000000e+00 0.000000e+00 0.000000e+00)) ((1.185755e+00 2.696146e+01 7.074915e-01) (-2.511639e-02 6.642561e-01 -1.504981e-02) (0.000000e+00 0.000000e+00 0.000000e+00))
352           	((2.982332e+01 -1.043665e+00 4.766528e-01) (6.946736e-01 2.433662e-02 -1.036640e-01) (0.000000e+00 0.000000e+00 0.000000e+00)) ((9.816125e-01 2.670636e+01 5.677961e-01) (-2.514693e-02 6.630276e-01 -1.509790e-02) (0.000000e+00 0.000000e+00 0.000000e+00))
353           	((2.973851e+01 -8.101007e-01 1.373716e-01) (6.928578e-01 2.458739e-02 -1.023493e-01) (0.000000e+00 0.000000e+00 0.000000e+00)) ((7.662706e-01 2.641888e+01 4.233181e-01) (-2.530249e-02 6.618727e-01 -1.520249e-02) (0.000000e+00 0.000000e+00 0.000000e+00))
354           	((2.965056e+01 -5.801744e-01 -2.331522e-01) (6.913354e-01 2.496855e-02 -1.011141e-01) (0.000000e+00 0.000000e+00 0.000000e+00)) ((5.527466e-01 2.610775e+01 2.826169e-01) (-2.560293e-02 6.609722e-01 -1.536668e-02) (0.000000e+00 0.000000e+00 0.000000e+00))
355           	((2.956521e+01 -3.643980e-01 -6.191609e-01) (6.900815e-01 2.540062e-02 -1.001658e-01) (0.000000e+00 0.000000e+00 0.000000e+00)) ((3.511066e-01 2.579159e+01 1.521742e-01) (-2.596659e-02 6.601829e-01 -1.555070e-02) (0.000000e+00 0.000000e+00 0.000000e+00))
356           	((2.947945e+01 -1.751572e-01 -1.001890e+00) (6.891847e-01 2.593501e-02 -9.931522e-02) (0.000000e+00 0.000000e+00 0.000000e+00)) ((1.732059e-01 2.547519e+01 4.011798e-02) (-2.645047e-02 6.597041e-01 -1.577809e-02) (0.000000e+00 0.000000e+00 0.000000e+00))
357           	((2.941135e+01 -1.819726e-02 -1.349280e+00) (6.886317e-01 2.654201e-02 -9.875981e-02) (0.000000e+00 0.000000e+00 0.000000e+00)) ((2.405861e-02 2.519752e+01 -5.079012e-02) (-2.702407e-02 6.594179e-01 -1.604858e-02) (0.000000e+00 0.000000e+00 0.000000e+00))
358           	((2.934660e+01 9.902527e-02 -1.668896e+00) (6.884782e-01 2.720698e-02 -9.837654e-02) (0.000000e+00 0.000000e+00 0.000000e+00)) ((-8.917061e-02 2.493978e+01 -1.161200e-01) (-2.767434e-02 6.594488e-01 -1.635123e-02) (0.000000e+00 0.000000e+00 0.000000e+00))
359           	((2.929260e+01 1.720456e-01 -1.948859e+00) (6.887097e-01 2.782998e-02 -9.831513e-02) (0.000000e+00 0.000000e+00 0.000000e+00)) ((-1.614681e-01 2.471918e+01 -1.534419e-01) (-2.829682e-02 6.597000e-01 -1.662777e-02) (0.000000e+00 0.000000e+00 0.000000e+00))
360           	((2.924307e+01 1.930192e-01 -2.182887e+00) (6.893850e-01 2.851508e-02 -9.837875e-02) (0.000000e+00 0.000000e+00 0.000000e+00)) ((-1.851263e-01 2.453036e+01 -1.586058e-01) (-2.900349e-02 6.603454e-01 -1.693466e-02) (0.000000e+00 0.000000e+00 0.000000e+00))
361           	((2.921190e+01 1.552578e-01 -2.352473e+00) (6.903628e-01 2.912620e-02 -9.879401e-02) (0.000000e+00 0.000000e+00 0.000000e+00)) ((-1.533047e-01 2.440018e+01 -1.282821e-01) (-2.964930e-02 6.611168e-01 -1.719580e-02) (0.000000e+00 0.000000e+00 0.000000e+00))
362           	((2.919620e+01 6.294774e-02 -2.460026e+00) (6.915300e-01 2.967429e-02 -9.933836e-02) (0.000000e+00 0.000000e+00 0.000000e+00)) ((-6.969007e-02 2.432259e+01 -6.483700e-02) (-3.024767e-02 6.620219e-01 -1.741922e-02) (0.000000e+00 0.000000e+00 0.000000e+00))
363           	((2.919469e+01 -7.962555e-02 -2.498508e+00) (6.926758e-01 3.014184e-02 -1.000100e-01) (0.000000e+00 0.000000e+00 0.000000e+00)) ((6.222535e-02 2.430352e+01 2.883199e-02) (-3.078216e-02 6.628299e-01 -1.760015e-02) (0.000000e+00 0.000000e+00 0.000000e+00))
364           	((2.919347e+01 -2.655909e-01 -2.476966e+00) (6.938877e-01 3.058869e-02 -1.006070e-01) (0.000000e+00 0.000000e+00 0.000000e+00)) ((2.357066e-01 2.432239e+01 1.487304e-01) (-3.131928e-02 6.637499e-01 -1.777030e-02) (0.000000e+00 0.000000e+00 0.000000e+00))
365           	((2.922877e+01 -4.884523e-01 -2.339438e+00) (6.952385e-01 3.094350e-02 -1.013683e-01) (0.000000e+00 0.000000e+00 0.000000e+00)) ((4.441442e-01 2.444749e+01 2.909860e-01) (-3.177168e-02 6.647222e-01 -1.788641e-02) (0.000000e+00 0.000000e+00 0.000000e+00))
366           	((2.929278e+01 -7.400963e-01 -2.089787e+00) (6.968406e-01 3.126930e-02 -1.021619e-01) (0.000000e+00 0.000000e+00 0.000000e+00)) ((6.791344e-01 2.466541e+01 4.507838e-01) (-3.220976e-02 6.659462e-01 -1.797899e-02) (0.000000e+00 0.000000e+00 0.000000e+00))
367           	((2.935949e+01 -1.015475e+00 -1.760075e+00) (6.984464e-01 3.154235e-02 -1.030802e-01) (0.000000e+00 0.000000e+00 0.000000e+00)) ((9.365583e-01 2.493811e+01 6.235040e-01) (-3.261191e-02 6.671032e-01 -1.804310e-02) (0.000000e+00 0.000000e+00 0.000000e+00))
368           	((2.941280e+01 -1.301504e+00 -1.376509e+00) (7.000753e-01 3.181486e-02 -1.038387e-01) (0.000000e+00 0.000000e+00 0.000000e+00)) ((1.203705e+00 2.523151e+01 8.005121e-01) (-3.303188e-02 6.683669e-01 -1.811013e-02) (0.000000e+00 0.000000e+00 0.000000e+00))
369           	((2.946448e+01 -1.594411e+00 -9.404741e-01) (7.015688e-01 3.199822e-02 -1.046112e-01) (0.000000e+00 0.000000e+00 0.000000e+00)) ((1.477709e+00 2.555649e+01 9.796870e-01) (-3.337639e-02 6.694656e-01 -1.814519e-02) (0.000000e+00 0.000000e+00 0.000000e+00))
370           	((2.951065e+01 -1.877951e+00 -4.796923e-01) (7.031032e-01 3.213332e-02 -1.053011e-01) (0.000000e+00 0.000000e+00 0.000000e+00)) ((1.742019e+00 2.588782e+01 1.151214e+00) (-3.368646e-02 6.706613e-01 -1.816668e-02) (0.000000e+00 0.000000e+00 0.000000e+00))
371           	((2.952293e+01 -2.143133e+00 -3.420618e-02) (7.045515e-01 3.218436e-02 -1.060958e-01) (0.000000e+00 0.000000e+00 0.000000e+00)) ((1.989643e+00 2.618096e+01 1.310455e+00) (-3.391166e-02 6.717189e-01 -1.815614e-02) (0.000000e+00 0.000000e+00 0.000000e+00))
372           	((2.949407e+01 -2.368352e+00 3.636046e-01) (7.059256e-01 3.224731e-02 -1.068361e-01) (0.000000e+00 0.000000e+00 0.000000e+00)) ((2.199479e+00 2.640753e+01 1.444106e+00) (-3.415345e-02 6.727351e-01 -1.816087e-02) (0.000000e+00 0.000000e+00 0.000000e+00))
373           	((2.943773e+01 -2.536368e+00 7.073190e-01) (7.071584e-01 3.228710e-02 -1.076999e-01) (0.000000e+00 0.000000e+00 0.000000e+00)) ((2.355114e+00 2.657718e+01 1.542171e+00) (-3.436350e-02 6.735454e-01 -1.815276e-02) (0.000000e+00 0.000000e+00 0.000000e+00))
374           	((2.933904e+01 -2.649218e+00 9.776900e-01) (7.081993e-01 3.236796e-02 -1.085403e-01) (0.000000e+00 0.000000e+00 0.000000e+00)) ((2.458662e+00 2.666168e+01 1.607156e+00) (-3.460640e-02 6.741762e-01 -1.817335e-02) (0.000000e+00 0.000000e+00 0.000000e+00))
375           	((2.922081e+01 -2.701175e+00 1.184749e+00) (7.090755e-01 3.247019e-02 -1.095000e-01) (0.000000e+00 0.000000e+00 0.000000e+00)) ((2.504949e+00 2.669179e+01 1.636266e+00) (-3.485258e-02 6.745732e-01 -1.820898e-02) (0.000000e+00 0.000000e+00 0.000000e+00))
376           	((2.909134e+01 -2.690643e+00 1.316884e+00) (7.098920e-01 3.269976e-02 -1.104393e-01) (0.000000e+00 0.000000e+00 0.000000e+00)) ((2.492444e+00 2.666327e+01 1.629329e+00) (-3.521396e-02 6.749280e-01 -1.832748e-02) (0.000000e+00 0.000000e+00 0.000000e+00))
377           	((2.898030e+01 -2.611736e+00 1.385252e+00) (7.106804e-01 3.294056e-02 -1.114845e-01) (0.000000e+00 0.000000e+00 0.000000e+00)) ((2.414598e+00 2.661195e+01 1.582618e+00) (-3.556284e-02 6.751942e-01 -1.847417e-02) (0.000000e+00 0.000000e+00 0.000000e+00))
378           	((2.888286e+01 -2.485423e+00 1.394157e+00) (7.114956e-01 3.332179e-02 -1.124958e-01) (0.000000e+00 0.000000e+00 0.000000e+00)) ((2.291826e+00 2.653033e+01 1.509609e+00) (-3.604143e-02 6.755039e-01 -1.871475e-02) (0.000000e+00 0.000000e+00 0.000000e+00))
379           	((2.882537e+01 -2.319202e+00 1.379689e+00) (7.122816e-01 3.373208e-02 -1.135758e-01) (0.000000e+00 0.000000e+00 0.000000e+00)) ((2.130987e+00 2.646843e+01 1.414123e+00) (-3.652946e-02 6.757258e-01 -1.898252e-02) (0.000000e+00 0.000000e+00 0.000000e+00))
380           	((2.880386e+01 -2.130774e+00 1.352400e+00) (7.131026e-01 3.426656e-02 -1.145583e-01) (0.000000e+00 0.000000e+00 0.000000e+00)) ((1.949127e+00 2.642589e+01 1.306556e+00) (-3.713191e-02 6.760201e-01 -1.932063e-02) (0.000000e+00 0.000000e+00 0.000000e+00))
381           	((2.881618e+01 -1.940628e+00 1.315823e+00) (7.138932e-01 3.483531e-02 -1.155966e-01) (0.000000e+00 0.000000e+00 0.000000e+00)) ((1.766648e+00 2.640752e+01 1.198959e+00) (-3.774809e-02 6.762224e-01 -1.968489e-02) (0.000000e+00 0.000000e+00 0.000000e+00))
382           	((2.884460e+01 -1.762113e+00 1.274977e+00) (7.146523e-01 3.539776e-02 -1.165340e-01) (0.000000e+00 0.000000e+00 0.000000e+00)) ((1.596376e+00 2.639938e+01 1.098533e+00) (-3.834484e-02 6.764213e-01 -2.004916e-02) (0.000000e+00 0.000000e+00 0.000000e+00))
383           	((2.888430e+01 -1.603948e+00 1.216381e+00) (7.153338e-01 3.586899e-02 -1.174531e-01) (0.000000e+00 0.000000e+00 0.000000e+00)) ((1.446910e+00 2.639231e+01 1.009738e+00) (-3.883146e-02 6.765242e-01 -2.035933e-02) (0.000000e+00 0.000000e+00 0.000000e+00))
384           	((2.892339e+01 -1.470328e+00 1.143534e+00) (7.160017e-01 3.634743e-02 -1.183150e-01) (0.000000e+00 0.000000e+00 0.000000e+00)) ((1.321954e+00 2.637583e+01 9.342813e-01) (-3.931815e-02 6.766280e-01 -2.066760e-02) (0.000000e+00 0.000000e+00 0.000000e+00))
385           	((2.896641e+01 -1.366708e+00 1.075480e+00) (7.166296e-01 3.670339e-02 -1.191925e-01) (0.000000e+00 0.000000e+00 0.000000e+00)) ((1.226655e+00 2.636876e+01 8.747251e-01) (-3.966489e-02 6.766696e-01 -2.089941e-02) (0.000000e+00 0.000000e+00 0.000000e+00))
386           	((2.899241e+01 -1.290959e+00 1.010997e+00) (7.172311e-01 3.702484e-02 -1.199516e-01) (0.000000e+00 0.000000e+00 0.000000e+00)) ((1.158581e+00 2.634854e+01 8.294349e-01) (-3.997348e-02 6.767397e-01 -2.110696e-02) (0.000000e+00 0.000000e+00 0.000000e+00))
387           	((2.900441e+01 -1.239610e+00 9.660964e-01) (7.178098e-01 3.725013e-02 -1.206640e-01) (0.000000e+00 0.000000e+00 0.000000e+00)) ((1.114354e+00 2.633056e+01 7.962377e-01) (-4.017664e-02 6.768116e-01 -2.126171e-02) (0.000000e+00 0.000000e+00 0.000000e+00))
388           	((2.900414e+01 -1.207452e+00 9.451045e-01) (7.183080e-01 3.745064e-02 -1.212541e-01) (0.000000e+00 0.000000e+00 0.000000e+00)) ((1.088665e+00 2.631680e+01 7.723897e-01) (-4.035381e-02 6.768675e-01 -2.140444e-02) (0.000000e+00 0.000000e+00 0.000000e+00))
389           	((2.899116e+01 -1.191115e+00 9.436491e-01) (7.187352e-01 3.757224e-02 -1.218180e-01) (0.000000e+00 0.000000e+00 0.000000e+00)) ((1.078266e+00 2.630595e+01 7.563117e-01) (-4.044708e-02 6.768717e-01 -2.150525e-02) (0.000000e+00 0.000000e+00 0.000000e+00))
390           	((2.895212e+01 -1.184641e+00 9.437228e-01) (7.190197e-01 3.769535e-02 -1.222628e-01) (0.000000e+00 0.000000e+00 0.000000e+00)) ((1.077388e+00 2.627165e+01 7.451425e-01) (-4.054697e-02 6.767973e-01 -2.161424e-02) (0.000000e+00 0.000000e+00 0.000000e+00))
391           	((2.889859e+01 -1.180323e+00 9.553155e-01) (7.191736e-01 3.780048e-02 -1.226990e-01) (0.000000e+00 0.000000e+00 0.000000e+00)) ((1.078586e+00 2.623286e+01 7.345115e-01) (-4.063152e-02 6.766030e-01 -2.172347e-02) (0.000000e+00 0.000000e+00 0.000000e+00))
392           	((2.881659e+01 -1.167833e+00 9.608681e-01) (7.193167e-01 3.795788e-02 -1.230018e-01) (0.000000e+00 0.000000e+00 0.000000e+00)) ((1.071695e+00 2.616289e+01 7.187253e-01) (-4.077581e-02 6.764863e-01 -2.186377e-02) (0.000000e+00 0.000000e+00 0.000000e+00))
393           	((2.871124e+01 -1.144196e+00 9.434937e-01) (7.193360e-01 3.814075e-02 -1.232971e-01) (0.000000e+00 0.000000e+00 0.000000e+00)) ((1.054317e+00 2.605849e+01 6.969676e-01) (-4.094687e-02 6.762583e-01 -2.202167e-02) (0.000000e+00 0.000000e+00 0.000000e+00))
394           	((2.858972e+01 -1.105033e+00 9.228359e-01) (7.192495e-01 3.842399e-02 -1.234086e-01) (0.000000e+00 0.000000e+00 0.000000e+00)) ((1.021812e+00 2.593513e+01 6.667854e-01) (-4.122319e-02 6.760398e-01 -2.222366e-02) (0.000000e+00 0.000000e+00 0.000000e+00))
395           	((2.845787e+01 -1.038883e+00 8.647777e-01) (7.191650e-01 3.867606e-02 -1.234993e-01) (0.000000e+00 0.000000e+00 0.000000e+00)) ((9.636322e-01 2.578047e+01 6.218016e-01) (-4.146479e-02 6.758581e-01 -2.240444e-02) (0.000000e+00 0.000000e+00 0.000000e+00))
396           	((2.831051e+01 -9.430027e-01 7.452878e-01) (7.191092e-01 3.901015e-02 -1.234582e-01) (0.000000e+00 0.000000e+00 0.000000e+00)) ((8.772242e-01 2.557223e+01 5.607788e-01) (-4.178606e-02 6.758041e-01 -2.261548e-02) (0.000000e+00 0.000000e+00 0.000000e+00))
397           	((2.817212e+01 -8.255373e-01 5.880249e-01) (7.190947e-01 3.936816e-02 -1.233750e-01) (0.000000e+00 0.000000e+00 0.000000e+00)) ((7.706258e-01 2.534969e+01 4.885332e-01) (-4.212050e-02 6.758429e-01 -2.282092e-02) (0.000000e+00 0.000000e+00 0.000000e+00))
398           	((2.805055e+01 -6.932463e-01 4.007503e-01) (7.192035e-01 3.983765e-02 -1.231427e-01) (0.000000e+00 0.000000e+00 0.000000e+00)) ((6.500209e-01 2.512156e+01 4.087077e-01) (-4.256221e-02 6.761131e-01 -2.306154e-02) (0.000000e+00 0.000000e+00 0.000000e+00))
399           	((2.795835e+01 -5.569081e-01 1.917868e-01) (7.193706e-01 4.038485e-02 -1.229606e-01) (0.000000e+00 0.000000e+00 0.000000e+00)) ((5.259295e-01 2.490785e+01 3.276245e-01) (-4.306648e-02 6.764349e-01 -2.332111e-02) (0.000000e+00 0.000000e+00 0.000000e+00))
400           	((2.789223e+01 -4.255716e-01 -2.015495e-02) (7.195236e-01 4.103605e-02 -1.226826e-01) (0.000000e+00 0.000000e+00 0.000000e+00)) ((4.062498e-01 2.471374e+01 2.505963e-01) (-4.367359e-02 6.768071e-01 -2.361922e-02) (0.000000e+00 0.000000e+00 0.000000e+00))
401           	((2.785570e+01 -3.030201e-01 -2.232947e-01) (7.194218e-01 4.166996e-02 -1.224654e-01) (0.000000e+00 0.000000e+00 0.000000e+00)) ((2.941635e-01 2.455242e+01 1.799850e-01) (-4.425129e-02 6.768939e-01 -2.388810e-02) (0.000000e+00 0.000000e+00 0.000000e+00))
402           	((2.783746e+01 -1.943940e-01 -4.332007e-01) (7.190945e-01 4.234896e-02 -1.222448e-01) (0.000000e+00 0.000000e+00 0.000000e+00)) ((1.941901e-01 2.440116e+01 1.185889e-01) (-4.486957e-02 6.767618e-01 -2.418157e-02) (0.000000e+00 0.000000e+00 0.000000e+00))
403           	((2.781990e+01 -9.494722e-02 -6.719009e-01) (7.185347e-01 4.294440e-02 -1.222188e-01) (0.000000e+00 0.000000e+00 0.000000e+00)) ((1.019181e-01 2.423516e+01 6.267306e-02) (-4.539451e-02 6.762957e-01 -2.442975e-02) (0.000000e+00 0.000000e+00 0.000000e+00))
404           	((2.778863e+01 -6.153495e-03 -9.389853e-01) (7.178591e-01 4.351411e-02 -1.222527e-01) (0.000000e+00 0.000000e+00 0.000000e+00)) ((1.838766e-02 2.403815e+01 1.244742e-02) (-4.589631e-02 6.756849e-01 -2.466407e-02) (0.000000e+00 0.000000e+00 0.000000e+00))
405           	((2.774288e+01 6.807613e-02 -1.237073e+00) (7.169964e-01 4.400080e-02 -1.223700e-01) (0.000000e+00 0.000000e+00 0.000000e+00)) ((-5.249389e-02 2.381079e+01 -3.002275e-02) (-4.631535e-02 6.748336e-01 -2.486367e-02) (0.000000e+00 0.000000e+00 0.000000e+00))
406           	((2.766620e+01 1.269467e-01 -1.583110e+00) (7.158214e-01 4.442340e-02 -1.224080e-01) (0.000000e+00 0.000000e+00 0.000000e+00)) ((-1.098234e-01 2.352709e+01 -6.433772e-02) (-4.667795e-02 6.736960e-01 -2.503573e-02) (0.000000e+00 0.000000e+00 0.000000e+00))
407           	((2.758078e+01 1.680856e-01 -1.939580e+00) (7.142930e-01 4.463703e-02 -1.224248e-01) (0.000000e+00 0.000000e+00 0.000000e+00)) ((-1.515148e-01 2.323116e+01 -8.902855e-02) (-4.683644e-02 6.721945e-01 -2.510096e-02) (0.000000e+00 0.000000e+00 0.000000e+00))
408           	((2.750115e+01 1.899316e-01 -2.267354e+00) (7.125146e-01 4.471214e-02 -1.222929e-01) (0.000000e+00 0.000000e+00 0.000000e+00)) ((-1.765485e-01 2.295639e+01 -1.026256e-01) (-4.685780e-02 6.705137e-01 -2.509022e-02) (0.000000e+00 0.000000e+00 0.000000e+00))
409           	((2.742909e+01 1.843726e-01 -2.556719e+00) (7.103839e-01 4.452927e-02 -1.221016e-01) (0.000000e+00 0.000000e+00 0.000000e+00)) ((-1.764810e-01 2.271495e+01 -1.000677e-01) (-4.661677e-02 6.684907e-01 -2.493929e-02) (0.000000e+00 0.000000e+00 0.000000e+00))
410           	((2.736264e+01 1.470941e-01 -2.802201e+00) (7.080275e-01 4.406473e-02 -1.216145e-01) (0.000000e+00 0.000000e+00 0.000000e+00)) ((-1.469534e-01 2.250539e+01 -7.813759e-02) (-4.609564e-02 6.663853e-01 -2.464193e-02) (0.000000e+00 0.000000e+00 0.000000e+00))
411           	((2.732296e+01 7.956261e-02 -2.970291e+00) (7.054356e-01 4.324421e-02 -1.210718e-01) (0.000000e+00 0.000000e+00 0.000000e+00)) ((-8.946237e-02 2.236912e+01 -3.768228e-02) (-4.521088e-02 6.640455e-01 -2.415987e-02) (0.000000e+00 0.000000e+00 0.000000e+00))
412           	((2.730827e+01 -1.663510e-02 -3.061247e+00) (7.027705e-01 4.215242e-02 -1.203455e-01) (0.000000e+00 0.000000e+00 0.000000e+00)) ((-5.352806e-03 2.230124e+01 2.038527e-02) (-4.405394e-02 6.617151e-01 -2.354198e-02) (0.000000e+00 0.000000e+00 0.000000e+00))
413           	((2.732320e+01 -1.376497e-01 -3.078803e+00) (7.001601e-01 4.069116e-02 -1.196841e-01) (0.000000e+00 0.000000e+00 0.000000e+00)) ((1.021298e-01 2.230674e+01 9.387365e-02) (-4.252203e-02 6.593878e-01 -2.273908e-02) (0.000000e+00 0.000000e+00 0.000000e+00))
414           	((2.735501e+01 -2.760005e-01 -3.050961e+00) (6.977581e-01 3.906489e-02 -1.189299e-01) (0.000000e+00 0.000000e+00 0.000000e+00)) ((2.261243e-01 2.235342e+01 1.781246e-01) (-4.082358e-02 6.573127e-01 -2.186564e-02) (0.000000e+00 0.000000e+00 0.000000e+00))
415           	((2.741083e+01 -4.234973e-01 -2.984839e+00) (6.955005e-01 3.726959e-02 -1.181351e-01) (0.000000e+00 0.000000e+00 0.000000e+00)) ((3.590012e-01 2.244468e+01 2.679217e-01) (-3.895309e-02 6.553922e-01 -2.090506e-02) (0.000000e+00 0.000000e+00 0.000000e+00))
416           	((2.748766e+01 -5.687080e-01 -2.883850e+00) (6.934835e-01 3.544180e-02 -1.171941e-01) (0.000000e+00 0.000000e+00 0.000000e+00)) ((4.896777e-01 2.257316e+01 3.562955e-01) (-3.704968e-02 6.537873e-01 -1.992916e-02) (0.000000e+00 0.000000e+00 0.000000e+00))
417           	((2.758502e+01 -7.044916e-01 -2.765485e+00) (6.916942e-01 3.358786e-02 -1.164341e-01) (0.000000e+00 0.000000e+00 0.000000e+00)) ((6.116788e-01 2.273048e+01 4.385655e-01) (-3.511713e-02 6.523047e-01 -1.892610e-02) (0.000000e+00 0.000000e+00 0.000000e+00))
418           	((2.768427e+01 -8.196647e-01 -2.646876e+00) (6.902269e-01 3.186509e-02 -1.156047e-01) (0.000000e+00 0.000000e+00 0.000000e+00)) ((7.143396e-01 2.288617e+01 5.078365e-01) (-3.331844e-02 6.511822e-01 -1.799247e-02) (0.000000e+00 0.000000e+00 0.000000e+00))
419           	((2.778486e+01 -9.070730e-01 -2.540496e+00) (6.889218e-01 3.018608e-02 -1.148892e-01) (0.000000e+00 0.000000e+00 0.000000e+00)) ((7.911224e-01 2.303471e+01 5.593651e-01) (-3.156451e-02 6.501414e-01 -1.708586e-02) (0.000000e+00 0.000000e+00 0.000000e+00))
420           	((2.787440e+01 -9.599495e-01 -2.466907e+00) (6.878672e-01 2.863445e-02 -1.142000e-01) (0.000000e+00 0.000000e+00 0.000000e+00)) ((8.356654e-01 2.315090e+01 5.890187e-01) (-2.994415e-02 6.493279e-01 -1.626047e-02) (0.000000e+00 0.000000e+00 0.000000e+00))
421           	((2.794925e+01 -9.780240e-01 -2.444242e+00) (6.869288e-01 2.718187e-02 -1.137053e-01) (0.000000e+00 0.000000e+00 0.000000e+00)) ((8.482190e-01 2.322321e+01 5.964293e-01) (-2.842018e-02 6.485018e-01 -1.549717e-02) (0.000000e+00 0.000000e+00 0.000000e+00))
422           	((2.799858e+01 -9.604927e-01 -2.483970e+00) (6.860385e-01 2.586906e-02 -1.133046e-01) (0.000000e+00 0.000000e+00 0.000000e+00)) ((8.282410e-01 2.323217e+01 5.812404e-01) (-2.704065e-02 6.476482e-01 -1.482044e-02) (0.000000e+00 0.000000e+00 0.000000e+00))
423           	((2.803169e+01 -9.111793e-01 -2.574144e+00) (6.852143e-01 2.469303e-02 -1.130686e-01) (0.000000e+00 0.000000e+00 0.000000e+00)) ((7.796507e-01 2.319632e+01 5.457573e-01) (-2.579375e-02 6.467498e-01 -1.423049e-02) (0.000000e+00 0.000000e+00 0.000000e+00))
424           	((2.804210e+01 -8.292480e-01 -2.712055e+00) (6.845446e-01 2.377290e-02 -1.128406e-01) (0.000000e+00 0.000000e+00 0.000000e+00)) ((7.014070e-01 2.310978e+01 4.897661e-01) (-2.480414e-02 6.459910e-01 -1.380060e-02) (0.000000e+00 0.000000e+00 0.000000e+00))
425           	((2.805005e+01 -7.174359e-01 -2.867540e+00) (6.839381e-01 2.295653e-02 -1.128069e-01) (0.000000e+00 0.000000e+00 0.000000e+00)) ((5.958962e-01 2.301232e+01 4.149464e-01) (-2.390733e-02 6.451806e-01 -1.342684e-02) (0.000000e+00 0.000000e+00 0.000000e+00))
426           	((2.805792e+01 -5.795715e-01 -3.037150e+00) (6.833971e-01 2.236160e-02 -1.127711e-01) (0.000000e+00 0.000000e+00 0.000000e+00)) ((4.666537e-01 2.290396e+01 3.238278e-01) (-2.322899e-02 6.444285e-01 -1.317370e-02) (0.000000e+00 0.000000e+00 0.000000e+00))
427           	((2.807148e+01 -4.245893e-01 -3.202417e+00) (6.828855e-01 2.191110e-02 -1.128642e-01) (0.000000e+00 0.000000e+00 0.000000e+00)) ((3.227843e-01 2.280450e+01 2.222221e-01) (-2.268555e-02 6.436194e-01 -1.300056e-02) (0.000000e+00 0.000000e+00 0.000000e+00))
428           	((2.808293e+01 -2.534477e-01 -3.366862e+00) (6.824380e-01 2.156155e-02 -1.130170e-01) (0.000000e+00 0.000000e+00 0.000000e+00)) ((1.649523e-01 2.270336e+01 1.107841e-01) (-2.223435e-02 6.428336e-01 -1.288028e-02) (0.000000e+00 0.000000e+00 0.000000e+00))
429           	((2.810210e+01 -7.084293e-02 -3.518398e+00) (6.820905e-01 2.129829e-02 -1.133732e-01) (0.000000e+00 0.000000e+00 0.000000e+00)) ((-2.128379e-03 2.261960e+01 -7.820432e-03) (-2.186005e-02 6.420384e-01 -1.281050e-02) (0.000000e+00 0.000000e+00 0.000000e+00))
430           	((2.811476e+01 1.170805e-01 -3.656505e+00) (6.818923e-01 2.113325e-02 -1.136307e-01) (0.000000e+00 0.000000e+00 0.000000e+00)) ((-1.725674e-01 2.253721e+01 -1.296320e-01) (-2.156583e-02 6.414729e-01 -1.279548e-02) (0.000000e+00 0.000000e+00 0.000000e+00))
431           	((2.813811e+01 3.050600e-01 -3.756212e+00) (6.818858e-01 2.093263e-02 -1.140000e-01) (0.000000e+00 0.000000e+00 0.000000e+00)) ((-3.415905e-01 2.248970e+01 -2.515835e-01) (-2.121666e-02 6.410738e-01 -1.275917e-02) (0.000000e+00 0.000000e+00 0.000000e+00))
432           	((2.817055e+01 4.918112e-01 -3.826719e+00) (6.819544e-01 2.073913e-02 -1.143177e-01) (0.000000e+00 0.000000e+00 0.000000e+00)) ((-5.087435e-01 2.246856e+01 -3.727124e-01) (-2.085451e-02 6.408123e-01 -1.272951e-02) (0.000000e+00 0.000000e+00 0.000000e+00))
433           	((2.820355e+01 6.683441e-01 -3.872560e+00) (6.820520e-01 2.047349e-02 -1.146570e-01) (0.000000e+00 0.000000e+00 0.000000e+00)) ((-6.655087e-01 2.246422e+01 -4.871365e-01) (-2.039199e-02 6.406079e-01 -1.265058e-02) (0.000000e+00 0.000000e+00 0.000000e+00))
434           	((2.824088e+01 8.349893e-01 -3.893762e+00) (6.821597e-01 2.005770e-02 -1.149180e-01) (0.000000e+00 0.000000e+00 0.000000e+00)) ((-8.133065e-01 2.247957e+01 -5.948022e-01) (-1.976304e-02 6.404972e-01 -1.247094e-02) (0.000000e+00 0.000000e+00 0.000000e+00))
435           	((2.826508e+01 9.813766e-01 -3.914679e+00) (6.821696e-01 1.949874e-02 -1.152413e-01) (0.000000e+00 0.000000e+00 0.000000e+00)) ((-9.414499e-01 2.248591e+01 -6.885335e-01) (-1.897757e-02 6.402886e-01 -1.220348e-02) (0.000000e+00 0.000000e+00 0.000000e+00))
436           	((2.828294e+01 1.112799e+00 -3.926665e+00) (6.822340e-01 1.871420e-02 -1.154574e-01) (0.000000e+00 0.000000e+00 0.000000e+00)) ((-1.056488e+00 2.249265e+01 -7.718313e-01) (-1.795209e-02 6.402311e-01 -1.179391e-02) (0.000000e+00 0.000000e+00 0.000000e+00))
437           	((2.829399e+01 1.215747e+00 -3.922407e+00) (6.821078e-01 1.771136e-02 -1.157366e-01) (0.000000e+00 0.000000e+00 0.000000e+00)) ((-1.144810e+00 2.250530e+01 -8.360471e-01) (-1.670139e-02 6.399725e-01 -1.124321e-02) (0.000000e+00 0.000000e+00 0.000000e+00))
438           	((2.829344e+01 1.291175e+00 -3.904175e+00) (6.818896e-01 1.652376e-02 -1.159233e-01) (0.000000e+00 0.000000e+00 0.000000e+00)) ((-1.207872e+00 2.251724e+01 -8.821276e-01) (-1.526146e-02 6.396946e-01 -1.055993e-02) (0.000000e+00 0.000000e+00 0.000000e+00))
439           	((2.828686e+01 1.333649e+00 -3.869391e+00) (6.814861e-01 1.515568e-02 -1.161180e-01) (0.000000e+00 0.000000e+00 0.000000e+00)) ((-1.240225e+00 2.253782e+01 -9.069658e-01) (-1.363424e-02 6.392418e-01 -9.762526e-03) (0.000000e+00 0.000000e+00 0.000000e+00))
440           	((2.827090e+01 1.342265e+00 -3.809301e+00) (6.810417e-01 1.364194e-02 -1.161439e-01) (0.000000e+00 0.000000e+00 0.000000e+00)) ((-1.241456e+00 2.256562e+01 -9.102362e-01) (-1.187612e-02 6.388639e-01 -8.870654e-03) (0.000000e+00 0.000000e+00 0.000000e+00))
441           	((2.826364e+01 1.317860e+00 -3.698677e+00) (6.805232e-01 1.199547e-02 -1.161104e-01) (0.000000e+00 0.000000e+00 0.000000e+00)) ((-1.212786e+00 2.263395e+01 -8.926782e-01) (-9.998013e-03 6.384656e-01 -7.901920e-03) (0.000000e+00 0.000000e+00 0.000000e+00))
442           	((2.825941e+01 1.255779e+00 -3.544858e+00) (6.800011e-01 1.031774e-02 -1.158365e-01) (0.000000e+00 0.000000e+00 0.000000e+00)) ((-1.149874e+00 2.273088e+01 -8.514674e-01) (-8.112618e-03 6.382120e-01 -6.921441e-03) (0.000000e+00 0.000000e+00 0.000000e+00))
443           	((2.826318e+01 1.161797e+00 -3.345938e+00) (6.795282e-01 8.616379e-03 -1.155051e-01) (0.000000e+00 0.000000e+00 0.000000e+00)) ((-1.058395e+00 2.286443e+01 -7.910505e-01) (-6.235389e-03 6.380596e-01 -5.933870e-03) (0.000000e+00 0.000000e+00 0.000000e+00))
444           	((2.826928e+01 1.047612e+00 -3.112315e+00) (6.792353e-01 7.036157e-03 -1.149170e-01) (0.000000e+00 0.000000e+00 0.000000e+00)) ((-9.500254e-01 2.301920e+01 -7.184634e-01) (-4.521205e-03 6.382520e-01 -5.028272e-03) (0.000000e+00 0.000000e+00 0.000000e+00))
445           	((2.829307e+01 9.245847e-01 -2.838872e+00) (6.790555e-01 5.542090e-03 -1.142979e-01) (0.000000e+00 0.000000e+00 0.000000e+00)) ((-8.358792e-01 2.321381e+01 -6.412242e-01) (-2.924833e-03 6.385971e-01 -4.186857e-03) (0.000000e+00 0.000000e+00 0.000000e+00))
446           	((2.831930e+01 8.035280e-01 -2.558711e+00) (6.790481e-01 4.227850e-03 -1.135238e-01) (0.000000e+00 0.000000e+00 0.000000e+00)) ((-7.259198e-01 2.341227e+01 -5.661857e-01) (-1.553807e-03 6.392158e-01 -3.441591e-03) (0.000000e+00 0.000000e+00 0.000000e+00))
447           	((2.836169e+01 6.990533e-01 -2.270549e+00) (6.792875e-01 3.071039e-03 -1.128184e-01) (0.000000e+00 0.000000e+00 0.000000e+00)) ((-6.337748e-01 2.363004e+01 -5.021369e-01) (-3.680449e-04 6.400632e-01 -2.789451e-03) (0.000000e+00 0.000000e+00 0.000000e+00))
448           	((2.840637e+01 6.205869e-01 -1.997414e+00) (6.797772e-01 2.165281e-03 -1.119986e-01) (0.000000e+00 0.000000e+00 0.000000e+00)) ((-5.679474e-01 2.383807e+01 -4.547174e-01) (5.351925e-04 6.412393e-01 -2.273710e-03) (0.000000e+00 0.000000e+00 0.000000e+00))
449           	((2.846114e+01 5.720609e-01 -1.751269e+00) (6.804497e-01 1.477010e-03 -1.112797e-01) (0.000000e+00 0.000000e+00 0.000000e+00)) ((-5.313491e-01 2.403897e+01 -4.262058e-01) (1.196261e-03 6.425483e-01 -1.881128e-03) (0.000000e+00 0.000000e+00 0.000000e+00))
450           	((2.852222e+01 5.583717e-01 -1.555156e+00) (6.813745e-01 1.024315e-03 -1.104865e-01) (0.000000e+00 0.000000e+00 0.000000e+00)) ((-5.281396e-01 2.421344e+01 -4.192042e-01) (1.601849e-03 6.441555e-01 -1.625386e-03) (0.000000e+00 0.000000e+00 0.000000e+00))
451           	((2.859493e+01 5.791216e-01 -1.417734e+00) (6.825853e-01 7.675552e-04 -1.098238e-01) (0.000000e+00 0.000000e+00 0.000000e+00)) ((-5.572847e-01 2.436367e+01 -4.336563e-01) (1.803964e-03 6.459809e-01 -1.497447e-03) (0.000000e+00 0.000000e+00 0.000000e+00))
452           	((2.867100e+01 6.293758e-01 -1.340389e+00) (6.840733e-01 7.445810e-04 -1.091717e-01) (0.000000e+00 0.000000e+00 0.000000e+00)) ((-6.136992e-01 2.447863e+01 -4.664937e-01) (1.753915e-03 6.480834e-01 -1.512132e-03) (0.000000e+00 0.000000e+00 0.000000e+00))
453           	((2.875719e+01 7.073846e-01 -1.320810e+00) (6.857499e-01 8.827198e-04 -1.086792e-01) (0.000000e+00 0.000000e+00 0.000000e+00)) ((-6.958356e-01 2.456789e+01 -5.166838e-01) (1.545089e-03 6.502862e-01 -1.625908e-03) (0.000000e+00 0.000000e+00 0.000000e+00))
454           	((2.883849e+01 8.056801e-01 -1.360193e+00) (6.876447e-01 1.227307e-03 -1.081681e-01) (0.000000e+00 0.000000e+00 0.000000e+00)) ((-7.963381e-01 2.461490e+01 -5.793987e-01) (1.131920e-03 6.527245e-01 -1.849946e-03) (0.000000e+00 0.000000e+00 0.000000e+00))
455           	((2.892350e+01 9.136933e-01 -1.435294e+00) (6.896193e-01 1.663742e-03 -1.079400e-01) (0.000000e+00 0.000000e+00 0.000000e+00)) ((-9.049132e-01 2.464398e+01 -6.481777e-01) (6.334451e-04 6.550733e-01 -2.131096e-03) (0.000000e+00 0.000000e+00 0.000000e+00))
456           	((2.900184e+01 1.028614e+00 -1.553594e+00) (6.916208e-01 2.132767e-03 -1.077215e-01) (0.000000e+00 0.000000e+00 0.000000e+00)) ((-1.019156e+00 2.463748e+01 -7.211883e-01) (1.111182e-04 6.574292e-01 -2.429204e-03) (0.000000e+00 0.000000e+00 0.000000e+00))
457           	((2.909006e+01 1.149686e+00 -1.675988e+00) (6.935274e-01 2.564702e-03 -1.076521e-01) (0.000000e+00 0.000000e+00 0.000000e+00)) ((-1.138710e+00 2.463729e+01 -7.982761e-01) (-3.586466e-04 6.595806e-01 -2.697731e-03) (0.000000e+00 0.000000e+00 0.000000e+00))
458           	((2.917433e+01 1.263248e+00 -1.805936e+00) (6.953714e-01 2.970876e-03 -1.076132e-01) (0.000000e+00 0.000000e+00 0.000000e+00)) ((-1.249785e+00 2.462630e+01 -8.701364e-01) (-7.935232e-04 6.616261e-01 -2.943989e-03) (0.000000e+00 0.000000e+00 0.000000e+00))
459           	((2.925386e+01 1.366012e+00 -1.943849e+00) (6.971808e-01 3.294202e-03 -1.077461e-01) (0.000000e+00 0.000000e+00 0.000000e+00)) ((-1.349209e+00 2.460611e+01 -9.344170e-01) (-1.133233e-03 6.635129e-01 -3.142046e-03) (0.000000e+00 0.000000e+00 0.000000e+00))