# y+ ()       
# Time        	patch         	min           	max           	average       
0             	RA	2.144074e+00	9.211037e+01	1.365437e+01
0             	RP	2.064815e+00	9.238916e+01	1.347892e+01
0             	body	1.668608e+00	1.530125e+02	1.421778e+01
0             	casco	2.668748e+00	1.124558e+02	1.474933e+01
0             	pilota	2.155243e+00	1.388557e+02	8.969381e+00
0             	ventole	2.928544e+00	6.107494e+01	1.466444e+01
0             	carena	1.831877e+00	1.090408e+02	9.441694e+00
0             	coda	1.799230e+00	1.316074e+02	1.293131e+01
0             	parafango	1.694533e+00	9.931765e+01	1.624245e+01
0             	parafPost	2.049188e+00	9.969630e+01	1.652702e+01
0             	muri	2.214087e+00	4.605429e+01	5.094810e+00
100           	RA	5.746526e+00	8.972183e+02	7.255172e+01
100           	RP	5.479591e-01	8.020343e+02	5.923152e+01
100           	body	1.167503e-07	1.259456e+03	6.591858e+01
100           	casco	4.381322e+00	1.220888e+03	9.100172e+01
100           	pilota	7.336094e-01	1.011597e+03	5.310975e+01
100           	ventole	2.693795e+00	1.942194e+02	2.572402e+01
100           	carena	6.124056e-01	1.084026e+03	4.610243e+01
100           	coda	2.980895e-05	5.502359e+02	3.026270e+01
100           	parafango	1.639625e+00	6.872124e+02	7.428933e+01
100           	parafPost	1.806292e+00	7.057979e+02	7.653121e+01
100           	muri	1.273915e+00	3.054293e+02	2.773746e+01
200           	RA	5.594306e+00	8.983287e+02	7.389959e+01
200           	RP	2.391035e-01	5.185526e+02	4.361851e+01
200           	body	1.350233e-07	1.070246e+03	6.116426e+01
200           	casco	2.055324e+00	1.144394e+03	8.672875e+01
200           	pilota	7.175033e-02	1.329660e+03	4.895991e+01
200           	ventole	4.742766e-01	1.077460e+02	1.253037e+01
200           	carena	3.005754e-01	1.236145e+03	4.475084e+01
200           	coda	9.447194e-05	7.170384e+02	2.919893e+01
200           	parafango	1.819341e+00	6.090518e+02	7.278990e+01
200           	parafPost	1.747860e+00	9.837801e+02	7.918730e+01
200           	muri	4.952769e-01	2.341617e+02	2.656226e+01
300           	RA	4.151104e+00	9.536678e+02	7.408593e+01
300           	RP	9.278036e-02	7.447997e+02	4.127649e+01
300           	body	1.167503e-07	1.118065e+03	5.962150e+01
300           	casco	2.096886e+00	1.188493e+03	8.243338e+01
300           	pilota	5.542154e-02	1.394905e+03	4.534280e+01
300           	ventole	2.578282e-01	7.731882e+01	9.587377e+00
300           	carena	1.436722e-01	1.174024e+03	4.347699e+01
300           	coda	7.945697e-07	7.433908e+02	2.537502e+01
300           	parafango	2.291624e+00	7.484367e+02	7.475172e+01
300           	parafPost	1.819174e+00	9.344955e+02	7.426245e+01
300           	muri	5.856303e-01	2.364827e+02	2.624089e+01
400           	RA	2.595245e+00	9.834032e+02	7.272296e+01
400           	RP	1.202369e-01	6.368748e+02	4.048231e+01
400           	body	1.167503e-07	1.105203e+03	6.052278e+01
400           	casco	3.313368e-01	1.076773e+03	8.192978e+01
400           	pilota	2.142003e-02	1.165104e+03	4.543443e+01
400           	ventole	8.016151e-02	4.852408e+01	6.528595e+00
400           	carena	1.832853e-01	1.202863e+03	4.354318e+01
400           	coda	2.205405e-07	8.375735e+02	2.510035e+01
400           	parafango	2.557950e+00	7.915275e+02	7.566874e+01
400           	parafPost	3.922374e+00	9.051326e+02	7.506919e+01
400           	muri	9.688926e-01	2.482849e+02	2.613674e+01
500           	RA	4.132458e+00	1.025556e+03	7.348111e+01
500           	RP	9.649704e-02	6.352709e+02	4.233728e+01
500           	body	1.167503e-07	1.146436e+03	5.980876e+01
500           	casco	5.876923e-01	1.188611e+03	8.387345e+01
500           	pilota	4.448575e-02	1.186557e+03	4.544996e+01
500           	ventole	1.390625e-01	3.829173e+01	6.202890e+00
500           	carena	8.248354e-02	1.189594e+03	4.333311e+01
500           	coda	8.470658e-08	9.634279e+02	2.611015e+01
500           	parafango	2.056866e+00	7.562488e+02	7.417851e+01
500           	parafPost	1.877697e+00	7.875081e+02	7.750854e+01
500           	muri	1.823111e-01	2.455043e+02	2.611425e+01
600           	RA	3.556554e+00	1.061096e+03	7.462242e+01
600           	RP	1.680698e-01	6.887689e+02	4.133511e+01
600           	body	1.270810e-07	1.076707e+03	5.977644e+01
600           	casco	1.071915e+00	1.099957e+03	8.320709e+01
600           	pilota	5.526765e-02	1.191627e+03	4.514334e+01
600           	ventole	2.077084e-01	7.094566e+01	8.170153e+00
600           	carena	1.949829e-01	1.134997e+03	4.319385e+01
600           	coda	2.517275e-06	7.743212e+02	2.686429e+01
600           	parafango	1.957863e+00	7.298118e+02	7.314404e+01
600           	parafPost	1.745497e+00	8.537875e+02	7.752485e+01
600           	muri	1.875425e-01	2.430718e+02	2.619294e+01
700           	RA	3.770141e+00	1.002509e+03	7.312332e+01
700           	RP	2.369518e-01	6.947408e+02	4.300150e+01
700           	body	1.167503e-07	9.903339e+02	5.991018e+01
700           	casco	1.143799e+00	1.122348e+03	8.447309e+01
700           	pilota	7.758269e-03	1.330101e+03	4.519613e+01
700           	ventole	2.515839e-01	7.809404e+01	8.901250e+00
700           	carena	1.623681e-01	1.192970e+03	4.319838e+01
700           	coda	1.396706e-05	8.063032e+02	2.811284e+01
700           	parafango	2.624099e+00	7.535226e+02	7.429444e+01
700           	parafPost	2.224780e+00	7.858383e+02	7.781066e+01
700           	muri	1.561773e-01	2.458031e+02	2.627503e+01
800           	RA	3.011505e+00	1.057050e+03	7.243133e+01
800           	RP	1.685322e-01	6.589643e+02	4.342173e+01
800           	body	1.167503e-07	1.115382e+03	6.015797e+01
800           	casco	9.713048e-01	1.150716e+03	8.276732e+01
800           	pilota	1.326301e-01	1.187751e+03	4.606607e+01
800           	ventole	3.981043e-01	7.726703e+01	9.613503e+00
800           	carena	2.581143e-01	1.194563e+03	4.373863e+01
800           	coda	7.300963e-07	6.698092e+02	2.791580e+01
800           	parafango	2.596593e+00	7.709162e+02	7.419696e+01
800           	parafPost	1.720393e+00	7.682873e+02	7.803199e+01
800           	muri	1.035893e-01	2.431032e+02	2.630147e+01
900           	RA	4.549077e+00	1.049695e+03	7.215540e+01
900           	RP	1.794582e-01	7.446989e+02	4.358680e+01
900           	body	1.310349e-07	1.113050e+03	5.996199e+01
900           	casco	1.188367e+00	1.192924e+03	8.093036e+01
900           	pilota	4.269744e-02	1.274217e+03	4.502163e+01
900           	ventole	5.715928e-01	9.177032e+01	1.263343e+01
900           	carena	4.292711e-02	1.113754e+03	4.369452e+01
900           	coda	1.285912e-05	8.168245e+02	2.710208e+01
900           	parafango	2.484993e+00	7.032117e+02	7.437026e+01
900           	parafPost	2.553423e+00	8.568209e+02	7.520931e+01
900           	muri	1.555322e-01	2.441472e+02	2.629156e+01
1000          	RA	2.875136e+00	1.006366e+03	7.136277e+01
1000          	RP	1.856786e-01	7.444341e+02	4.297136e+01
1000          	body	1.350233e-07	1.153226e+03	6.062905e+01
1000          	casco	1.639233e+00	1.200570e+03	8.087210e+01
1000          	pilota	1.074966e-01	1.231502e+03	4.541445e+01
1000          	ventole	2.539357e-01	8.173218e+01	8.857286e+00
1000          	carena	5.046109e-02	1.154103e+03	4.363946e+01
1000          	coda	1.708370e-05	8.302376e+02	2.619801e+01
1000          	parafango	1.960494e+00	7.691419e+02	7.481071e+01
1000          	parafPost	4.277304e-01	8.601917e+02	7.806989e+01
1000          	muri	1.173849e-01	2.456319e+02	2.629937e+01
